! TOUCHSTONE file generated by CST MICROWAVE STUDIO
! Date and time: Wed Sep 25 16:55:53 2024
! Project name: unit_cell_optimization_L=10.0_Wgap=1.0_Wline=1.42.cst
! Parameters = {A=1.03591; AB_sqInv=0.931309; B=0.025494; C0=2.097; Cj=2.0886; Cp=0.075; Ct=2.12774; ImZ=-7.48; L=10; L1=0.3; L_back=16.1559; Lp=0.35; Lpad=0.75; M=1.199; R=5.41; R_cav=0.5; R_sogl=4.36377; ReZ=5.03838; Rt=5.03838; V=0.01; Vj=2.984; W=10; W1=-0.15; W2=-0.15; Wcoop=3.29; Wgap=1; Wline=1.42; Wpad=0.475; Wpadgap=0.35; Xpad1=1.6225; Xpad2=0.7975; Xpad3=1.6225; Xpad4=0.7975; Xvar_centre=1.21; angle_sogl=144.599; f=0.01; f0=11; fmax=11.25; fmin=10.75; h=0.8; phase=0; phi=0; sogl_proc=0.641844; th=0.035; theta=0}
! Header version: 2024
! Port assignment regex: !\s*Touchstone port\s*([0-9]+)\s*=\s*(CST MWS port|CST DES external port|CST DES block port)\s*(.+)\s* \(\"(.*)\"\)(\s*mode\s*([0-9]+))?.*
! Touchstone port assignment:
! Touchstone port 1 = CST MWS port Zmax ("") mode 1
! S-Parameters are not renormalized. Unphysical impedance of 50 will be written to the file.
# GHz S RI R 50
7                    0.736503683     0.655053191
7.006                0.738005376     0.653333854
7.012                0.739503695     0.651610148
7.018                0.740998628     0.649882074
7.024                0.742490163     0.648149632
7.03                 0.743978292     0.646412821
7.036                0.745463002     0.644671644
7.042                0.746944282     0.642926099
7.048                0.748422122     0.641176186
7.054                0.749896512     0.639421907
7.06                 0.751367439     0.637663261
7.066                0.752834892     0.635900248
7.072                0.754298862     0.634132868
7.078                0.755759337     0.632361121
7.084                0.757216305     0.630585008
7.09                 0.758669756     0.628804528
7.096                0.760119678     0.627019682
7.102                0.761566061     0.625230469
7.108                0.763008893     0.623436889
7.114                0.764448163     0.621638942
7.12                  0.76588386     0.619836629
7.126                0.767315972     0.618029948
7.132                0.768744489       0.6162189
7.138                0.770169398     0.614403485
7.144                0.771590689     0.612583702
7.15                  0.77300835     0.610759551
7.156                0.774422369     0.608931032
7.162                0.775832736     0.607098145
7.168                0.777239438     0.605260889
7.174                0.778642465     0.603419264
7.18                 0.780041804     0.601573269
7.186                0.781437445     0.599722905
7.192                0.782829375      0.59786817
7.198                0.784217582     0.596009065
7.204                0.785602056     0.594145588
7.21                 0.786982784      0.59227774
7.216                0.788359755     0.590405519
7.222                0.789732957     0.588528926
7.228                0.791102377     0.586647959
7.234                0.792468005     0.584762617
7.24                 0.793829828     0.582872902
7.246                0.795187834      0.58097881
7.252                0.796542011     0.579080342
7.258                0.797892348     0.577177498
7.264                0.799238831     0.575270275
7.27                  0.80058145     0.573358674
7.276                0.801920192     0.571442694
7.282                0.803255044     0.569522333
7.288                0.804585995      0.56759759
7.294                0.805913032     0.565668466
7.3                  0.807236143     0.563734958
7.306                0.808555315     0.561797066
7.312                0.809870537     0.559854788
7.318                0.811181795     0.557908124
7.324                0.812489077     0.555957073
7.33                 0.813792371     0.554001632
7.336                0.815091664     0.552041802
7.342                0.816386943      0.55007758
7.348                0.817678196     0.548108965
7.354                 0.81896541     0.546135957
7.36                 0.820248572     0.544158553
7.366                 0.82152767     0.542176753
7.372                0.822802689     0.540190555
7.378                0.824073619     0.538199957
7.384                0.825340445     0.536204957
7.39                 0.826603154     0.534205555
7.396                0.827861734     0.532201749
7.402                0.829116171     0.530193537
7.408                0.830366453     0.528180917
7.414                0.831612565     0.526163888
7.42                 0.832854494     0.524142448
7.426                0.834092228     0.522116594
7.432                0.835325753     0.520086326
7.438                0.836555054     0.518051641
7.444                 0.83778012     0.516012538
7.45                 0.839000935     0.513969014
7.456                0.840217487     0.511921067
7.462                0.841429762     0.509868695
7.468                0.842637745     0.507811897
7.474                0.843841424     0.505750669
7.48                 0.845040784      0.50368501
7.486                0.846235811     0.501614917
7.492                0.847426492     0.499540389
7.498                0.848612811     0.497461422
7.504                0.849794756     0.495378015
7.51                 0.850972311     0.493290164
7.516                0.852145462     0.491197868
7.522                0.853314196     0.489101123
7.528                0.854478497     0.486999928
7.534                0.855638351     0.484894279
7.54                 0.856793744     0.482784174
7.546                 0.85794466      0.48066961
7.552                0.859091086     0.478550585
7.558                0.860233006     0.476427094
7.564                0.861370405     0.474299136
7.57                 0.862503269     0.472166707
7.576                0.863631582     0.470029805
7.582                 0.86475533     0.467888426
7.588                0.865874497     0.465742567
7.594                0.866989067     0.463592225
7.6                  0.868099026     0.461437397
7.606                0.869204359     0.459278079
7.612                0.870305048     0.457114268
7.618                 0.87140108      0.45494596
7.624                0.872492438     0.452773152
7.63                 0.873579106     0.450595841
7.636                 0.87466107     0.448414023
7.642                0.875738311     0.446227694
7.648                0.876810816      0.44403685
7.654                0.877878567     0.441841488
7.66                 0.878941548     0.439641604
7.666                0.879999743     0.437437193
7.672                0.881053136     0.435228253
7.678                0.882101709     0.433014778
7.684                0.883145448     0.430796764
7.69                 0.884184333     0.428574209
7.696                 0.88521835     0.426347106
7.702                0.886247481     0.424115452
7.708                0.887271709     0.421879243
7.714                0.888291016     0.419638474
7.72                 0.889305387      0.41739314
7.726                0.890314802     0.415143237
7.732                0.891319246     0.412888761
7.738                  0.8923187     0.410629705
7.744                0.893313147     0.408366067
7.75                 0.894302568      0.40609784
7.756                0.895286947     0.403825021
7.762                0.896266264     0.401547603
7.768                0.897240503     0.399265581
7.774                0.898209645     0.396978952
7.78                  0.89917367     0.394687708
7.786                0.900132562     0.392391846
7.792                0.901086301     0.390091359
7.798                0.902034869     0.387786242
7.804                0.902978246     0.385476489
7.81                 0.903916414     0.383162095
7.816                0.904849354     0.380843055
7.822                0.905777047     0.378519361
7.828                0.906699472      0.37619101
7.834                0.907616611     0.373857993
7.84                 0.908528444     0.371520306
7.846                0.909434952     0.369177942
7.852                0.910336113     0.366830895
7.858                0.911231909     0.364479159
7.864                0.912122319     0.362122727
7.87                 0.913007322     0.359761593
7.876                0.913886899      0.35739575
7.882                0.914761028     0.355025191
7.888                0.915629689     0.352649911
7.894                 0.91649286     0.350269901
7.9                  0.917350522     0.347885156
7.906                0.918202652     0.345495667
7.912                0.919049229     0.343101428
7.918                0.919890231     0.340702432
7.924                0.920725637     0.338298672
7.93                 0.921555425     0.335890139
7.936                0.922379572     0.333476827
7.942                0.923198057     0.331058727
7.948                0.924010857     0.328635833
7.954                 0.92481795     0.326208136
7.96                 0.925619312     0.323775629
7.966                0.926414921     0.321338303
7.972                0.927204753      0.31889615
7.978                0.927988786     0.316449162
7.984                0.928766995     0.313997332
7.99                 0.929539357      0.31154065
7.996                0.930305848     0.309079107
8.002                0.931066445     0.306612696
8.008                0.931821122     0.304141408
8.014                0.932569855     0.301665233
8.02                  0.93331262     0.299184163
8.026                0.934049391     0.296698189
8.032                0.934780144     0.294207301
8.038                0.935504854      0.29171149
8.044                0.936223493     0.289210748
8.05                 0.936936038     0.286705063
8.056                0.937642462     0.284194427
8.062                0.938342738      0.28167883
8.068                0.939036841     0.279158263
8.074                0.939724743     0.276632714
8.08                 0.940406418     0.274102174
8.086                0.941081838     0.271566633
8.092                0.941750977     0.269026081
8.098                0.942413806     0.266480506
8.104                0.943070298     0.263929898
8.11                 0.943720425     0.261374248
8.116                0.944364158     0.258813543
8.122                0.945001469     0.256247772
8.128                0.945632328     0.253676926
8.134                0.946256707     0.251100991
8.14                 0.946874576     0.248519958
8.146                0.947485905     0.245933815
8.152                0.948090665     0.243342549
8.158                0.948688826     0.240746149
8.164                0.949280356     0.238144604
8.17                 0.949865225     0.235537901
8.176                0.950443401     0.232926028
8.182                0.951014855     0.230308973
8.188                0.951579552     0.227686723
8.194                0.952137463     0.225059266
8.2                  0.952688553     0.222426588
8.206                0.953232792     0.219788678
8.212                0.953770145     0.217145522
8.218                0.954300579     0.214497106
8.224                0.954824062     0.211843418
8.23                 0.955340558     0.209184445
8.236                0.955850034     0.206520171
8.242                0.956352454     0.203850584
8.248                0.956847785      0.20117567
8.254                 0.95733599     0.198495415
8.26                 0.957817035     0.195809804
8.266                0.958290882     0.193118823
8.272                0.958757496     0.190422458
8.278                0.959216839     0.187720693
8.284                0.959668875     0.185013514
8.29                 0.960113566     0.182300907
8.296                0.960550874     0.179582854
8.302                0.960980761     0.176859343
8.308                0.961403188     0.174130356
8.314                0.961818115     0.171395878
8.32                 0.962225504     0.168655894
8.326                0.962625314     0.165910386
8.332                0.963017505      0.16315934
8.338                0.963402036     0.160402739
8.344                0.963778866     0.157640566
8.35                 0.964147952     0.154872804
8.356                0.964509254     0.152099437
8.362                0.964862727     0.149320448
8.368                 0.96520833     0.146535818
8.374                0.965546018     0.143745532
8.38                 0.965875747     0.140949571
8.386                0.966197473     0.138147918
8.392                0.966511151     0.135340554
8.398                0.966816735     0.132527461
8.404                 0.96711418     0.129708622
8.41                 0.967403437     0.126884017
8.416                0.967684461     0.124053628
8.422                0.967957204     0.121217436
8.428                0.968221618     0.118375421
8.434                0.968477653     0.115527566
8.44                 0.968725261     0.112673849
8.446                0.968964391     0.109814252
8.452                0.969194994     0.106948755
8.458                0.969417017     0.104077337
8.464                 0.96963041     0.101199979
8.47                  0.96983512    0.0983166589
8.476                0.970031095    0.0954273574
8.482                0.970218281    0.0925320532
8.488                0.970396623    0.0896307253
8.494                0.970566067    0.0867233524
8.5                  0.970726557    0.0838099131
8.506                0.970878039    0.0808903856
8.512                0.971020453    0.0779647482
8.518                0.971153744    0.0750329787
8.524                0.971277853    0.0720950548
8.53                 0.971392721     0.069150954
8.536                0.971498289    0.0662006536
8.542                0.971594496    0.0632441307
8.548                0.971681281    0.0602813621
8.554                0.971758583    0.0573123245
8.56                 0.971826338    0.0543369944
8.566                0.971884484    0.0513553478
8.572                0.971932956    0.0483673609
8.578                0.971971689    0.0453730094
8.584                0.972000618    0.0423722689
8.59                 0.972019676    0.0393651147
8.596                0.972028795     0.036351522
8.602                0.972027907    0.0333314656
8.608                0.972016944    0.0303049202
8.614                0.971995833    0.0272718604
8.62                 0.971964506    0.0242322604
8.626                 0.97192289    0.0211860941
8.632                0.971870911    0.0181333354
8.638                0.971808497    0.0150739579
8.644                0.971735572    0.0120079349
8.65                 0.971652061    0.0089352396
8.656                0.971557886   0.00585584484
8.662                0.971452971   0.00276972333
8.668                0.971337236  -0.00032315245
8.674                0.971210602  -0.00342281027
8.68                 0.971072988   -0.0065292781
8.686                 0.97092431  -0.00964258416
8.692                0.970764488   -0.0127627569
8.698                0.970593436   -0.0158898249
8.704                0.970411068    -0.019023817
8.71                 0.970217299   -0.0221647624
8.716                0.970012041   -0.0253126904
8.722                0.969795204   -0.0284676304
8.728                0.969566699   -0.0316296123
8.734                0.969326434    -0.034798666
8.74                 0.969074316   -0.0379748216
8.746                0.968810253   -0.0411581097
8.752                0.968534147   -0.0443485607
8.758                0.968245904   -0.0475462055
8.764                0.967945424   -0.0507510751
8.77                 0.967632609   -0.0539632008
8.776                0.967307358    -0.057182614
8.782                0.966969568   -0.0604093464
8.788                0.966619137   -0.0636434298
8.794                0.966255959   -0.0668848962
8.8                  0.965879927    -0.070133778
8.806                0.965490933   -0.0733901075
8.812                0.965088869   -0.0766539174
8.818                0.964673621   -0.0799252406
8.824                0.964245079   -0.0832041099
8.83                 0.963803126   -0.0864905586
8.836                0.963347648   -0.0897846201
8.842                0.962878525   -0.0930863279
8.848                0.962395639   -0.0963957158
8.854                0.961898868   -0.0997128174
8.86                 0.961388088    -0.103037667
8.866                0.960863176    -0.106370299
8.872                0.960324003    -0.109710747
8.878                0.959770442    -0.113059046
8.884                0.959202361     -0.11641523
8.89                 0.958619628    -0.119779335
8.896                0.958022109    -0.123151395
8.902                0.957409666    -0.126531445
8.908                 0.95678216     -0.12991952
8.914                0.956139452    -0.133315656
8.92                 0.955481397    -0.136719887
8.926                0.954807851     -0.14013225
8.932                0.954118665    -0.143552779
8.938                0.953413692     -0.14698151
8.944                0.952692777    -0.150418478
8.95                 0.951955767     -0.15386372
8.956                0.951202506    -0.157317271
8.962                0.950432833    -0.160779166
8.968                0.949646587    -0.164249442
8.974                0.948843604    -0.167728134
8.98                 0.948023716    -0.171215277
8.986                0.947186755    -0.174710908
8.992                0.946332548    -0.178215062
8.998                 0.94546092    -0.181727774
9.004                0.944571693    -0.185249081
9.01                 0.943664687    -0.188779017
9.016                0.942739718    -0.192317618
9.022                0.941796599    -0.195864919
9.028                0.940835142    -0.199420955
9.034                0.939855154    -0.202985761
9.04                 0.938856438    -0.206559372
9.046                0.937838796    -0.210141822
9.052                0.936802027    -0.213733146
9.058                0.935745924    -0.217333378
9.064                0.934670279    -0.220942551
9.07                 0.933574879    -0.224560699
9.076                0.932459509    -0.228187855
9.082                 0.93132395    -0.231824053
9.088                0.930167978    -0.235469324
9.094                0.928991366    -0.239123701
9.1                  0.927793885    -0.242787216
9.106                  0.9265753    -0.246459899
9.112                0.925335373    -0.250141782
9.118                0.924073861    -0.253832894
9.124                0.922790517    -0.257533265
9.13                 0.921485092    -0.261242925
9.136                 0.92015733    -0.264961901
9.142                0.918806973    -0.268690223
9.148                0.917433756    -0.272427915
9.154                0.916037411    -0.276175005
9.16                 0.914617666    -0.279931519
9.166                0.913174244     -0.28369748
9.172                0.911706861    -0.287472913
9.178                0.910215231    -0.291257841
9.184                0.908699061    -0.295052284
9.19                 0.907158055    -0.298856265
9.196                 0.90559191    -0.302669801
9.202                0.904000318    -0.306492913
9.208                0.902382966    -0.310325616
9.214                0.900739535    -0.314167928
9.22                 0.899069702    -0.318019862
9.226                0.897373136    -0.321881431
9.232                0.895649502    -0.325752647
9.238                0.893898457     -0.32963352
9.244                0.892119653    -0.333524059
9.25                 0.890312738     -0.33742427
9.256                0.888477349    -0.341334157
9.262                0.886613121    -0.345253723
9.268                 0.88471968     -0.34918297
9.274                0.882796646    -0.353121896
9.28                 0.880843631    -0.357070498
9.286                0.878860241    -0.361028769
9.292                0.876846076    -0.364996702
9.298                0.874800726    -0.368974286
9.304                0.872723776    -0.372961508
9.31                 0.870614803     -0.37695835
9.316                0.868473374    -0.380964796
9.322                0.866299052    -0.384980821
9.328                0.864091388    -0.389006402
9.334                0.861849927    -0.393041509
9.34                 0.859574205    -0.397086112
9.346                0.857263751    -0.401140174
9.352                0.854918082    -0.405203656
9.358                0.852536709    -0.409276515
9.364                0.850119133    -0.413358704
9.37                 0.847664845    -0.417450171
9.376                0.845173328     -0.42155086
9.382                0.842644055    -0.425660712
9.388                0.840076487     -0.42977966
9.394                0.837470078    -0.433907634
9.4                   0.83482427    -0.438044558
9.406                0.832138495    -0.442190352
9.412                0.829412175    -0.446344927
9.418                 0.82664472    -0.450508192
9.424                 0.82383553    -0.454680047
9.43                 0.820983993    -0.458860387
9.436                0.818089485    -0.463049099
9.442                0.815151373    -0.467246064
9.448                0.812169008    -0.471451155
9.454                0.809141732    -0.475664239
9.46                 0.806068874    -0.479885171
9.466                0.802949748    -0.484113803
9.472                0.799783659    -0.488349975
9.478                0.796569896    -0.492593518
9.484                0.793307736    -0.496844255
9.49                 0.789996441    -0.501101999
9.496                 0.78663526    -0.505366551
9.502                0.783223428    -0.509637705
9.508                0.779760167     -0.51391524
9.514                 0.77624468    -0.518198927
9.52                 0.772676161    -0.522488522
9.526                0.769053783    -0.526783771
9.532                0.765376708    -0.531084406
9.538                 0.76164408    -0.535390145
9.544                0.757855028    -0.539700693
9.55                 0.754008664    -0.544015739
9.556                0.750104084    -0.548334959
9.562                0.746140367    -0.552658011
9.568                0.742116576    -0.556984538
9.574                0.738031754    -0.561314166
9.58                  0.73388493      -0.5656465
9.586                0.729675113    -0.569981132
9.592                0.725401294    -0.574317629
9.598                0.721062445    -0.578655541
9.604                0.716657521    -0.582994398
9.61                 0.712185458    -0.587333706
9.616                0.707645172    -0.591672948
9.622                0.703035559    -0.596011587
9.628                0.698355497    -0.600349056
9.634                0.693603844    -0.604684769
9.64                 0.688779437    -0.609018108
9.646                0.683881093     -0.61334843
9.652                0.678907609    -0.617675062
9.658                0.673857761    -0.621997304
9.664                0.668730304    -0.626314422
9.67                 0.663523974     -0.63062565
9.676                0.658237483    -0.634930191
9.682                0.652869523    -0.639227209
9.688                0.647418765    -0.643515837
9.694                 0.64188386    -0.647795165
9.7                  0.636263434    -0.652064247
9.706                0.630556094    -0.656322095
9.712                0.624760426     -0.66056768
9.718                0.618874992    -0.664799928
9.724                0.612898337    -0.669017719
9.73                  0.60682898    -0.673219886
9.736                0.600665422    -0.677405212
9.742                0.594406142     -0.68157243
9.748                0.588049599    -0.685720219
9.754                0.581594231    -0.689847202
9.76                 0.575038455    -0.693951946
9.766                0.568380672    -0.698032956
9.772                0.561619261    -0.702088678
9.778                0.554752582    -0.706117491
9.784                 0.54777898     -0.71011771
9.79                 0.540696779    -0.714087578
9.796                0.533504289    -0.718025268
9.802                0.526199805    -0.721928877
9.808                0.518781607    -0.725796426
9.814                0.511247959    -0.729625855
9.82                 0.503597115    -0.733415022
9.826                0.495827319    -0.737161697
9.832                0.487936805    -0.740863563
9.838                0.479923796    -0.744518208
9.844                0.471786513    -0.748123126
9.85                  0.46352317    -0.751675712
9.856                0.455131982    -0.755173257
9.862                0.446611159    -0.758612948
9.868                0.437958919    -0.761991859
9.874                0.429173482    -0.765306953
9.88                 0.420253075    -0.768555076
9.886                 0.41119594     -0.77173295
9.892                0.402000331    -0.774837175
9.898                0.392664518     -0.77786422
9.904                0.383186798    -0.780810421
9.91                 0.373565489    -0.783671977
9.916                0.363798942    -0.786444946
9.922                0.353885544    -0.789125238
9.928                0.343823719    -0.791708615
9.934                 0.33361194    -0.794190684
9.94                  0.32324873    -0.796566894
9.946                 0.31273267    -0.798832531
9.952                0.302062406    -0.800982712
9.958                0.291236654    -0.803012386
9.964                0.280254212    -0.804916325
9.97                 0.269113962     -0.80668912
9.976                0.257814882    -0.808325181
9.982                0.246356055    -0.809818729
9.988                0.234736679    -0.811163797
9.994                0.222956074    -0.812354219
10                   0.211013695    -0.813383636
10.006               0.198909145    -0.814245486
10.012               0.186642182    -0.814933004
10.018               0.174212736    -0.815439219
10.024               0.161620921    -0.815756956
10.03                0.148867045    -0.815878826
10.036               0.135951631    -0.815797234
10.042               0.122875426    -0.815504373
10.048               0.109639423    -0.814992227
10.054              0.0962448712     -0.81425257
10.06               0.0826932966    -0.813276968
10.066              0.0689865202    -0.812056784
10.072              0.0551266754    -0.810583178
10.078              0.0411162277    -0.808847113
10.084              0.0269579948    -0.806839361
10.09               0.0126551668    -0.804550509
10.096            -0.00178867244    -0.801970967
10.102             -0.0163695237    -0.799090976
10.108             -0.0310829501    -0.795900624
10.114             -0.0459240548    -0.792389851
10.12              -0.0608874574    -0.788548468
10.126             -0.0759672712    -0.784366173
10.132             -0.0911570796    -0.779832565
10.138              -0.106449912     -0.77493717
10.144              -0.121838222    -0.769669457
10.15               -0.137313862    -0.764018864
10.156               -0.15286806    -0.757974827
10.162              -0.168491399    -0.751526807
10.168              -0.184173796     -0.74466432
10.174              -0.199904476    -0.737376974
10.18               -0.215671957    -0.729654505
10.186              -0.231464032    -0.721486815
10.192              -0.247267747    -0.712864016
10.198              -0.263069391    -0.703776474
10.204               -0.27885448    -0.694214857
10.21               -0.294607749    -0.684170185
10.216              -0.310313144    -0.673633886
10.222              -0.325953815    -0.662597848
10.228              -0.341512119    -0.651054478
10.234              -0.356969619    -0.638996767
10.24               -0.372307095    -0.626418346
10.246              -0.387504552    -0.613313557
10.252              -0.402541238    -0.599677514
10.258              -0.417395666    -0.585506176
10.264               -0.43204564     -0.57079641
10.27               -0.446468289    -0.555546065
10.276              -0.460640108    -0.539754038
10.282              -0.474536998    -0.523420343
10.288              -0.488134323     -0.50654618
10.294               -0.50140697       -0.489134
10.3                -0.514329408    -0.471187567
10.306              -0.526875769    -0.452712023
10.312              -0.539019921     -0.43371394
10.318              -0.550735557    -0.414201373
10.324              -0.561996289    -0.394183911
10.33               -0.572775745    -0.373672713
10.336              -0.583047676    -0.352680546
10.342              -0.592786063    -0.331221808
10.348              -0.601965238     -0.30931255
10.354                  -0.61056    -0.286970482
10.36                -0.61854574    -0.264214974
10.366              -0.625898566    -0.241067046
10.372              -0.632595431    -0.217549344
10.378              -0.638614261    -0.193686108
10.384              -0.643934085     -0.16950313
10.39               -0.648535157    -0.145027696
10.396              -0.652399086    -0.120288516
10.402              -0.655508949   -0.0953156492
10.408               -0.65784941   -0.0701404095
10.414              -0.659406826   -0.0447952647
10.42               -0.660169348   -0.0193137235
10.426              -0.660127009   0.00626978696
10.432              -0.659271812    0.0319200533
10.438              -0.657597792    0.0576012155
10.444               -0.65510108    0.0832769138
10.45               -0.651779948     0.108910442
10.456              -0.647634837     0.134464904
10.462              -0.642668379     0.159903377
10.468              -0.636885401     0.185189069
10.474              -0.630292908     0.210285488
10.48               -0.622900069     0.235156598
10.486              -0.614718166      0.25976698
10.492              -0.605760549     0.284081986
10.498              -0.596042564      0.30806789
10.504              -0.585581477     0.331692026
10.51               -0.574396381     0.354922926
10.516              -0.562508094     0.377730441
10.522              -0.549939047     0.400085857
10.528              -0.536713163     0.421961999
10.534               -0.52285573     0.443333319