! TOUCHSTONE file generated by CST MICROWAVE STUDIO
! Date and time: Wed Sep 25 16:55:53 2024
! Project name: unit_cell_optimization_L=10.0_Wgap=1.0_Wline=1.42.cst
! Parameters = {A=1.20852; AB_sqInv=0.684378; B=0.025494; C0=2.097; Cj=0.359671; Cp=0.075; Ct=0.433746; ImZ=-36.6931; L=10; L1=0.3; L_back=16.1559; Lp=0.35; Lpad=0.75; M=1.199; R=5.41; R_cav=0.5; R_sogl=4.36377; ReZ=3.70249; Rt=3.70249; V=10; Vj=2.984; W=10; W1=-0.15; W2=-0.15; Wcoop=3.29; Wgap=1; Wline=1.42; Wpad=0.475; Wpadgap=0.35; Xpad1=1.6225; Xpad2=0.7975; Xpad3=1.6225; Xpad4=0.7975; Xvar_centre=1.21; angle_sogl=144.599; f=0.01; f0=11; fmax=11.25; fmin=10.75; h=0.8; phase=0; phi=0; sogl_proc=0.641844; th=0.035; theta=0}
! Header version: 2024
! Port assignment regex: !\s*Touchstone port\s*([0-9]+)\s*=\s*(CST MWS port|CST DES external port|CST DES block port)\s*(.+)\s* \(\"(.*)\"\)(\s*mode\s*([0-9]+))?.*
! Touchstone port assignment:
! Touchstone port 1 = CST MWS port Zmax ("") mode 1
! S-Parameters are not renormalized. Unphysical impedance of 50 will be written to the file.
# GHz S RI R 50
7                    0.553512717      0.78584937
7.006                0.555771601     0.784469537
7.012                0.558024384     0.783082759
7.018                 0.56027106     0.781689076
7.024                0.562511622     0.780288528
7.03                 0.564746066     0.778881151
7.036                0.566974384     0.777466986
7.042                0.569196573      0.77604607
7.048                0.571412626     0.774618441
7.054                 0.57362254     0.773184137
7.06                 0.575826309     0.771743195
7.066                0.578023929     0.770295652
7.072                0.580215396     0.768841546
7.078                0.582400705     0.767380912
7.084                0.584579854     0.765913788
7.09                 0.586752838     0.764440208
7.096                0.588919655      0.76296021
7.102                0.591080301     0.761473828
7.108                0.593234773     0.759981099
7.114                0.595383068     0.758482056
7.12                 0.597525184     0.756976735
7.126                0.599661119     0.755465171
7.132                0.601790869     0.753947397
7.138                0.603914434     0.752423448
7.144                0.606031812     0.750893357
7.15                    0.608143     0.749357159
7.156                0.610247998     0.747814885
7.162                0.612346803     0.746266569
7.168                0.614439415     0.744712245
7.174                0.616525833     0.743151943
7.18                 0.618606055     0.741585698
7.186                0.620680082     0.740013539
7.192                0.622747912       0.7384355
7.198                0.624809545     0.736851612
7.204                0.626864981     0.735261905
7.21                  0.62891422     0.733666411
7.216                0.630957261     0.732065161
7.222                0.632994105     0.730458184
7.228                0.635024752     0.728845511
7.234                0.637049202     0.727227173
7.24                 0.639067456     0.725603198
7.246                0.641079514     0.723973615
7.252                0.643085377     0.722338456
7.258                0.645085046     0.720697747
7.264                0.647078522     0.719051517
7.27                 0.649065806     0.717399796
7.276                0.651046898     0.715742612
7.282                0.653021801     0.714079991
7.288                0.654990515     0.712411963
7.294                0.656953041     0.710738554
7.3                  0.658909383     0.709059791
7.306                 0.66085954     0.707375702
7.312                0.662803515     0.705686313
7.318                0.664741309     0.703991651
7.324                0.666672924     0.702291741
7.33                 0.668598363     0.700586611
7.336                0.670517627     0.698876285
7.342                0.672430717     0.697160789
7.348                0.674337638     0.695440148
7.354                0.676238389     0.693714388
7.36                 0.678132974     0.691983533
7.366                0.680021396     0.690247607
7.372                0.681903656     0.688506636
7.378                0.683779756     0.686760642
7.384                  0.6856497     0.685009651
7.39                  0.68751349     0.683253685
7.396                0.689371128     0.681492768
7.402                0.691222618     0.679726924
7.408                0.693067961     0.677956174
7.414                 0.69490716     0.676180543
7.42                 0.696740219     0.674400051
7.426                0.698567139     0.672614723
7.432                0.700387925     0.670824579
7.438                0.702202578     0.669029641
7.444                0.704011102     0.667229931
7.45                 0.705813499     0.665425471
7.456                0.707609773     0.663616282
7.462                0.709399926     0.661802384
7.468                0.711183961     0.659983798
7.474                0.712961882     0.658160545
7.48                 0.714733691     0.656332645
7.486                0.716499391     0.654500118
7.492                0.718258986     0.652662985
7.498                0.720012479     0.650821263
7.504                0.721759872     0.648974975
7.51                 0.723501169     0.647124137
7.516                0.725236372      0.64526877
7.522                0.726965486     0.643408892
7.528                0.728688513     0.641544522
7.534                0.730405455     0.639675678
7.54                 0.732116317     0.637802379
7.546                0.733821101     0.635924642
7.552                0.735519811     0.634042486
7.558                0.737212449     0.632155927
7.564                0.738899019     0.630264984
7.57                 0.740579523     0.628369673
7.576                0.742253965     0.626470012
7.582                0.743922347     0.624566017
7.588                0.745584674     0.622657706
7.594                0.747240947     0.620745093
7.6                   0.74889117     0.618828196
7.606                0.750535345     0.616907031
7.612                0.752173477     0.614981614
7.618                0.753805567      0.61305196
7.624                0.755431618     0.611118084
7.63                 0.757051634     0.609180002
7.636                0.758665617      0.60723773
7.642                 0.76027357     0.605291281
7.648                0.761875496     0.603340671
7.654                0.763471398     0.601385915
7.66                 0.765061278     0.599427026
7.666                0.766645139     0.597464019
7.672                0.768222984     0.595496908
7.678                0.769794816     0.593525706
7.684                0.771360636     0.591550428
7.69                 0.772920448     0.589571087
7.696                0.774474253     0.587587696
7.702                0.776022056     0.585600268
7.708                0.777563857     0.583608816
7.714                0.779099659     0.581613353
7.72                 0.780629465     0.579613892
7.726                0.782153277     0.577610445
7.732                0.783671097     0.575603025
7.738                0.785182928     0.573591642
7.744                0.786688771     0.571576311
7.75                 0.788188628     0.569557041
7.756                0.789682502     0.567533845
7.762                0.791170394     0.565506734
7.768                0.792652307      0.56347572
7.774                0.794128242     0.561440813
7.78                 0.795598201     0.559402025
7.786                0.797062187     0.557359366
7.792                0.798520199     0.555312847
7.798                0.799972241     0.553262478
7.804                0.801418313      0.55120827
7.81                 0.802858418     0.549150233
7.816                0.804292556     0.547088377
7.822                 0.80572073     0.545022712
7.828                0.807142939     0.542953247
7.834                0.808559186     0.540879992
7.84                 0.809969472     0.538802956
7.846                0.811373797     0.536722149
7.852                0.812772163      0.53463758
7.858                0.814164571     0.532549258
7.864                0.815551022      0.53045719
7.87                 0.816931516     0.528361387
7.876                0.818306054     0.526261857
7.882                0.819674636     0.524158607
7.888                0.821037264     0.522051647
7.894                0.822393938     0.519940983
7.9                  0.823744658     0.517826625
7.906                0.825089425     0.515708579
7.912                0.826428238     0.513586854
7.918                0.827761099     0.511461457
7.924                0.829088006     0.509332395
7.93                  0.83040896     0.507199676
7.936                0.831723962     0.505063306
7.942                 0.83303301     0.502923293
7.948                0.834336104     0.500779643
7.954                0.835633245     0.498632363
7.96                 0.836924431     0.496481459
7.966                0.838209663     0.494326938
7.972                0.839488939     0.492168806
7.978                0.840762259     0.490007069
7.984                0.842029623     0.487841733
7.99                 0.843291028     0.485672805
7.996                0.844546474     0.483500289
8.002                0.845795961     0.481324191
8.008                0.847039487     0.479144517
8.014                 0.84827705     0.476961271
8.02                 0.849508649      0.47477446
8.026                0.850734283     0.472584088
8.032                0.851953951     0.470390161
8.038                0.853167649     0.468192682
8.044                0.854375378     0.465991657
8.05                 0.855577134      0.46378709
8.056                0.856772917     0.461578985
8.062                0.857962723     0.459367347
8.068                 0.85914655     0.457152181
8.074                0.860324397     0.454933489
8.08                 0.861496261     0.452711276
8.086                0.862662139     0.450485546
8.092                0.863822029     0.448256303
8.098                0.864975928     0.446023549
8.104                0.866123833     0.443787288
8.11                 0.867265741     0.441547525
8.116                0.868401649     0.439304261
8.122                0.869531554     0.437057499
8.128                0.870655452     0.434807244
8.134                0.871773341     0.432553497
8.14                 0.872885217     0.430296261
8.146                0.873991075      0.42803554
8.152                0.875090912     0.425771334
8.158                0.876184725     0.423503647
8.164                0.877272509     0.421232481
8.17                  0.87835426     0.418957838
8.176                0.879429974     0.416679719
8.182                0.880499647     0.414398128
8.188                0.881563273     0.412113064
8.194                0.882620849     0.409824531
8.2                  0.883672369      0.40753253
8.206                0.884717829     0.405237061
8.212                0.885757224     0.402938127
8.218                0.886790548     0.400635727
8.224                0.887817797     0.398329865
8.23                 0.888838964     0.396020539
8.236                0.889854044     0.393707752
8.242                0.890863032     0.391391503
8.248                0.891865922     0.389071794
8.254                0.892862707     0.386748625
8.26                 0.893853383     0.384421995
8.266                0.894837941     0.382091907
8.272                0.895816377     0.379758358
8.278                0.896788684      0.37742135
8.284                0.897754854     0.375080883
8.29                 0.898714881     0.372736955
8.296                0.899668759     0.370389568
8.302                 0.90061648     0.368038719
8.308                0.901558036      0.36568441
8.314                0.902493421     0.363326638
8.32                 0.903422627     0.360965404
8.326                0.904345646     0.358600706
8.332                0.905262471     0.356232543
8.338                0.906173093     0.353860914
8.344                0.907077504     0.351485818
8.35                 0.907975696     0.349107254
8.356                0.908867661     0.346725219
8.362                 0.90975339     0.344339713
8.368                0.910632873     0.341950734
8.374                0.911506103     0.339558279
8.38                  0.91237307     0.337162348
8.386                0.913233764     0.334762937
8.392                0.914088177     0.332360044
8.398                0.914936298     0.329953668
8.404                0.915778119     0.327543806
8.41                 0.916613628     0.325130455
8.416                0.917442816     0.322713613
8.422                0.918265673     0.320293277
8.428                0.919082188     0.317869444
8.434                 0.91989235     0.315442111
8.44                 0.920696149     0.313011275
8.446                0.921493574     0.310576933
8.452                0.922284613     0.308139081
8.458                0.923069255     0.305697717
8.464                0.923847488     0.303252835
8.47                 0.924619301     0.300804433
8.476                0.925384682     0.298352508
8.482                0.926143619     0.295897054
8.488                0.926896099     0.293438068
8.494                 0.92764211     0.290975546
8.5                  0.928381639     0.288509483
8.506                0.929114673     0.286039875
8.512                0.929841199     0.283566718
8.518                0.930561204     0.281090006
8.524                0.931274675     0.278609736
8.53                 0.931981597     0.276125902
8.536                0.932681956     0.273638499
8.542                0.933375739     0.271147522
8.548                0.934062931     0.268652966
8.554                0.934743518     0.266154825
8.56                 0.935417484     0.263653095
8.566                0.936084815     0.261147768
8.572                0.936745496      0.25863884
8.578                 0.93739951     0.256126305
8.584                0.938046843     0.253610156
8.59                 0.938687479     0.251090388
8.596                0.939321401     0.248566994
8.602                0.939948592     0.246039968
8.608                0.940569037     0.243509303
8.614                0.941182718     0.240974993
8.62                 0.941789619     0.238437031
8.626                0.942389722      0.23589541
8.632                0.942983009     0.233350123
8.638                0.943569462     0.230801162
8.644                0.944149065     0.228248521
8.65                 0.944721797     0.225692193
8.656                 0.94528764     0.223132169
8.662                0.945846576     0.220568441
8.668                0.946398586     0.218001003
8.674                 0.94694365     0.215429845
8.68                 0.947481748     0.212854961
8.686                0.948012861     0.210276341
8.692                0.948536967     0.207693977
8.698                0.949054048     0.205107861
8.704                0.949564081     0.202517984
8.71                 0.950067046     0.199924338
8.716                0.950562922     0.197326912
8.722                0.951051686     0.194725699
8.728                0.951533317     0.192120689
8.734                0.952007792     0.189511872
8.74                  0.95247509      0.18689924
8.746                0.952935186     0.184282782
8.752                0.953388059     0.181662488
8.758                0.953833683     0.179038349
8.764                0.954272036     0.176410355
8.77                 0.954703094     0.173778495
8.776                0.955126831     0.171142758
8.782                0.955543223     0.168503135
8.788                0.955952245     0.165859614
8.794                0.956353871     0.163212185
8.8                  0.956748076     0.160560836
8.806                0.957134833     0.157905557
8.812                0.957514115     0.155246336
8.818                0.957885897     0.152583161
8.824                0.958250149     0.149916021
8.83                 0.958606846     0.147244904
8.836                0.958955958     0.144569798
8.842                0.959297458     0.141890691
8.848                0.959631316      0.13920757
8.854                0.959957503     0.136520423
8.86                  0.96027599     0.133829238
8.866                0.960586747     0.131134001
8.872                0.960889743     0.128434699
8.878                0.961184948      0.12573132
8.884                 0.96147233     0.123023849
8.89                 0.961751857     0.120312275
8.896                0.962023498     0.117596581
8.902                 0.96228722     0.114876756
8.908                 0.96254299     0.112152784
8.914                0.962790775     0.109424652
8.92                  0.96303054     0.106692345
8.926                0.963262252     0.103955849
8.932                0.963485875     0.101215148
8.938                0.963701374    0.0984702281
8.944                0.963908714    0.0957210737
8.95                 0.964107859    0.0929676697
8.956                0.964298771    0.0902100003
8.962                0.964481413      0.08744805
8.968                0.964655747    0.0846818028
8.974                0.964821736    0.0819112425
8.98                 0.964979341    0.0791363529
8.986                0.965128521    0.0763571175
8.992                0.965269237    0.0735735196
8.998                 0.96540145    0.0707855422
9.004                0.965525117    0.0679931682
9.01                 0.965640197    0.0651963804
9.016                0.965746648    0.0623951612
9.022                0.965844427    0.0595894929
9.028                0.965933491    0.0567793577
9.034                0.966013797    0.0539647372
9.04                 0.966085298    0.0511456132
9.046                0.966147951    0.0483219672
9.052                 0.96620171    0.0454937803
9.058                0.966246527    0.0426610336
9.064                0.966282357    0.0398237078
9.07                 0.966309151    0.0369817836
9.076                 0.96632686    0.0341352412
9.082                0.966335436    0.0312840608
9.088                0.966334829    0.0284282224
9.094                0.966324988    0.0255677055
9.1                  0.966305862    0.0227024897
9.106                  0.9662774    0.0198325541
9.112                0.966239548    0.0169578778
9.118                0.966192252    0.0140784396
9.124                 0.96613546    0.0111942178
9.13                 0.966069114   0.00830519095
9.136                0.965993161   0.00541133698
9.142                0.965907543   0.00251263374
9.148                0.965812203 -0.000390941197
9.154                0.965707083  -0.00329941048
9.16                 0.965592123  -0.00621279702
9.166                0.965467263  -0.00913112396
9.172                0.965332443   -0.0120544147
9.178                0.965187601   -0.0149826928
9.184                0.965032675   -0.0179159823
9.19                 0.964867599   -0.0208543072
9.196                0.964692312    -0.023797692
9.202                0.964506746   -0.0267461612
9.208                0.964310835   -0.0296997397
9.214                0.964104512   -0.0326584528
9.22                 0.963887709   -0.0356223258
9.226                0.963660356   -0.0385913844
9.232                0.963422383   -0.0415656544
9.238                0.963173717   -0.0445451621
9.244                0.962914288   -0.0475299338
9.25                  0.96264402   -0.0505199964
9.256                0.962362839   -0.0535153767
9.262                0.962070669    -0.056516102
9.268                0.961767433   -0.0595221997
9.274                0.961453053   -0.0625336977
9.28                 0.961127449   -0.0655506239
9.286                0.960790541   -0.0685730065
9.292                0.960442247   -0.0716008743
9.298                0.960082482   -0.0746342559
9.304                0.959711164   -0.0776731804
9.31                 0.959328206   -0.0807176773
9.316                0.958933522   -0.0837677761
9.322                0.958527021   -0.0868235067
9.328                0.958108616   -0.0898848993
9.334                0.957678214   -0.0929519843
9.34                 0.957235723   -0.0960247924
9.346                0.956781049   -0.0991033545
9.352                0.956314095    -0.102187702
9.358                0.955834766    -0.105277866
9.364                0.955342961    -0.108373879
9.37                 0.954838581    -0.111475772
9.376                0.954321525    -0.114583578
9.382                0.953791688     -0.11769733
9.388                0.953248965    -0.120817059
9.394                0.952693249      -0.1239428
9.4                  0.952124432    -0.127074586
9.406                0.951542403     -0.13021245
9.412                0.950947051    -0.133356425
9.418                0.950338261    -0.136506547
9.424                0.949715916     -0.13966285
9.43                 0.949079901    -0.142825367
9.436                0.948430094    -0.145994134
9.442                0.947766374    -0.149169187
9.448                0.947088617    -0.152350559
9.454                0.946396698    -0.155538287
9.46                 0.945690488    -0.158732407
9.466                0.944969858    -0.161932955
9.472                0.944234675    -0.165139966
9.478                0.943484805    -0.168353478
9.484                 0.94272011    -0.171573526
9.49                 0.941940453    -0.174800148
9.496                0.941145692    -0.178033381
9.502                0.940335682    -0.181273262
9.508                0.939510277    -0.184519828
9.514                0.938669329    -0.187773117
9.52                 0.937812686    -0.191033167
9.526                0.936940195    -0.194300016
9.532                0.936051698    -0.197573701
9.538                0.935147036    -0.200854261
9.544                0.934226047    -0.204141735
9.55                 0.933288566     -0.20743616
9.556                0.932334424    -0.210737575
9.562                0.931363452     -0.21404602
9.568                0.930375475    -0.217361532
9.574                0.929370315    -0.220684151
9.58                 0.928347794    -0.224013916
9.586                0.927307727    -0.227350865
9.592                0.926249928    -0.230695037
9.598                0.925174206    -0.234046472
9.604                0.924080369    -0.237405207
9.61                 0.922968219    -0.240771284
9.616                0.921837556    -0.244144739
9.622                0.920688175    -0.247525613
9.628                0.919519869    -0.250913943
9.634                0.918332426    -0.254309769
9.64                 0.917125629    -0.257713129
9.646                0.915899261    -0.261124061
9.652                0.914653095    -0.264542604
9.658                0.913386906    -0.267968796
9.664                0.912100461    -0.271402674
9.67                 0.910793523    -0.274844276
9.676                0.909465851     -0.27829364
9.682                  0.9081172    -0.281750801
9.688                0.906747319    -0.285215798
9.694                0.905355955    -0.288688665
9.7                  0.903942847    -0.292169439
9.706                0.902507731    -0.295658155
9.712                0.901050336    -0.299154847
9.718                0.899570389     -0.30265955
9.724                0.898067608    -0.306172298
9.73                 0.896541709    -0.309693124
9.736                  0.8949924    -0.313222059
9.742                0.893419383    -0.316759136
9.748                0.891822358    -0.320304385
9.754                0.890201015    -0.323857836
9.76                 0.888555039    -0.327419518
9.766                 0.88688411     -0.33098946
9.772                  0.8851879    -0.334567687
9.778                0.883466077    -0.338154226
9.784                0.881718298    -0.341749102
9.79                 0.879944219    -0.345352338
9.796                0.878143484    -0.348963957
9.802                0.876315733    -0.352583978
9.808                0.874460596    -0.356212422
9.814                0.872577699    -0.359849305
9.82                 0.870666657    -0.363494645
9.826                 0.86872708    -0.367148454
9.832                0.866758567    -0.370810746
9.838                0.864760713    -0.374481531
9.844                  0.8627331    -0.378160816
9.85                 0.860675305    -0.381848609
9.856                0.858586895    -0.385544912
9.862                0.856467426    -0.389249728
9.868                0.854316449    -0.392963054
9.874                0.852133502    -0.396684887
9.88                 0.849918115    -0.400415219
9.886                0.847669809    -0.404154041
9.892                0.845388092     -0.40790134
9.898                0.843072464    -0.411657098
9.904                0.840722415    -0.415421297
9.91                 0.838337422    -0.419193911
9.916                0.835916951    -0.422974914
9.922                 0.83346046    -0.426764274
9.928                0.830967392    -0.430561954
9.934                0.828437178    -0.434367914
9.94                  0.82586924    -0.438182109
9.946                0.823262984    -0.442004487
9.952                0.820617805    -0.445834994
9.958                0.817933084    -0.449673567
9.964                0.815208191    -0.453520141
9.97                 0.812442479    -0.457374642
9.976                0.809635289    -0.461236989
9.982                0.806785947    -0.465107098
9.988                0.803893764    -0.468984875
9.994                0.800958037    -0.472870219
10                   0.797978046    -0.476763022
10.006               0.794953058    -0.480663168
10.012               0.791882319     -0.48457053
10.018               0.788765064    -0.488484976
10.024               0.785600507    -0.492406361
10.03                0.782387846    -0.496334534
10.036               0.779126262     -0.50026933
10.042               0.775814916    -0.504210574
10.048               0.772452953    -0.508158082
10.054               0.769039496    -0.512111656
10.06                0.765573651    -0.516071086
10.066               0.762054503    -0.520036149
10.072               0.758481116    -0.524006608
10.078               0.754852534    -0.527982212
10.084               0.751167779    -0.531962696
10.09                0.747425853    -0.535947777
10.096               0.743625734    -0.539937158
10.102               0.739766376    -0.543930523
10.108               0.735846713    -0.547927538
10.114               0.731865652    -0.551927851
10.12                0.727822078     -0.55593109
10.126                0.72371485     -0.55993686
10.132               0.719542801    -0.563944747
10.138                0.71530474    -0.567954314
10.144               0.710999448    -0.571965097
10.15                0.706625679     -0.57597661
10.156               0.702182159     -0.57998834
10.162               0.697667588    -0.583999746
10.168               0.693080636    -0.588010258
10.174               0.688419943    -0.592019276
10.18                 0.68368412    -0.596026168
10.186               0.678871749    -0.600030269
10.192               0.673981378    -0.604030881
10.198               0.669011527    -0.608027266
10.204               0.663960682    -0.612018651
10.21                0.658827297    -0.616004221
10.216               0.653609794     -0.61998312
10.222               0.648306561    -0.623954448
10.228               0.642915952     -0.62791726
10.234               0.637436287    -0.631870562
10.24                 0.63186585    -0.635813309
10.246               0.626202893    -0.639744403
10.252               0.620445628    -0.643662693
10.258               0.614592236    -0.647566968
10.264               0.608640859    -0.651455957
10.27                0.602589603    -0.655328326
10.276               0.596436539    -0.659182673
10.282               0.590179699    -0.663017528
10.288                0.58381708    -0.666831347
10.294               0.577346641    -0.670622511
10.3                 0.570766308    -0.674389319
10.306               0.564073965    -0.678129989
10.312               0.557267465    -0.681842649
10.318               0.550344622    -0.685525338
10.324               0.543303216    -0.689175996
10.33                0.536140992    -0.692792465
10.336               0.528855661    -0.696372481
10.342               0.521444903    -0.699913671
10.348               0.513906363    -0.703413548
10.354               0.506237657    -0.706869502
10.36                0.498436373      -0.7102788
10.366               0.490500071    -0.713638578
10.372               0.482426283    -0.716945834
10.378               0.474212521    -0.720197423
10.384               0.465856275     -0.72339005
10.39                0.457355018    -0.726520265
10.396               0.448706206    -0.729584454
10.402               0.439907287    -0.732578834
10.408               0.430955697    -0.735499443
10.414               0.421848873    -0.738342135
10.42                0.412584251    -0.741102572
10.426               0.403159276    -0.743776213
10.432               0.393571404     -0.74635831
10.438               0.383818111    -0.748843896
10.444               0.373896897    -0.751227777
10.45                0.363805297    -0.753504525
10.456               0.353540889    -0.755668466
10.462               0.343101301    -0.757713674
10.468               0.332484221    -0.759633956
10.474                0.32168741     -0.76142285
10.48                0.310708711    -0.763073607
10.486               0.299546066     -0.76457919
10.492               0.288197524    -0.765932257
10.498               0.276661259    -0.767125152
10.504               0.264935589      -0.7681499
10.51                0.253018986    -0.768998193
10.516               0.240910102    -0.769661384
10.522               0.228607784    -0.770130472
10.528                 0.2161111    -0.770396102
10.534               0.203419356    -0.770448549