! TOUCHSTONE file generated by CST MICROWAVE STUDIO
! Date and time: Wed Sep 25 16:55:54 2024
! Project name: unit_cell_optimization_L=10.0_Wgap=1.0_Wline=1.42.cst
! Parameters = {A=1.30817; AB_sqInv=0.584128; B=0.025494; C0=2.097; Cj=0.243374; Cp=0.075; Ct=0.317982; ImZ=-50.0516; L=10; L1=0.3; L_back=16.1559; Lp=0.35; Lpad=0.75; M=1.199; R=5.41; R_cav=0.5; R_sogl=4.36377; ReZ=3.16013; Rt=3.16013; V=15; Vj=2.984; W=10; W1=-0.15; W2=-0.15; Wcoop=3.29; Wgap=1; Wline=1.42; Wpad=0.475; Wpadgap=0.35; Xpad1=1.6225; Xpad2=0.7975; Xpad3=1.6225; Xpad4=0.7975; Xvar_centre=1.21; angle_sogl=144.599; f=0.01; f0=11; fmax=11.25; fmin=10.75; h=0.8; phase=0; phi=0; sogl_proc=0.641844; th=0.035; theta=0}
! Header version: 2024
! Port assignment regex: !\s*Touchstone port\s*([0-9]+)\s*=\s*(CST MWS port|CST DES external port|CST DES block port)\s*(.+)\s* \(\"(.*)\"\)(\s*mode\s*([0-9]+))?.*
! Touchstone port assignment:
! Touchstone port 1 = CST MWS port Zmax ("") mode 1
! S-Parameters are not renormalized. Unphysical impedance of 50 will be written to the file.
# GHz S RI R 50
7                    0.242469208     0.874434366
7.006                0.247891037     0.874012183
7.012                0.253261647     0.873550042
7.018                0.258581756     0.873049111
7.024                 0.26385207     0.872510519
7.03                  0.26907329     0.871935354
7.036                0.274246108      0.87132467
7.042                0.279371208     0.870679482
7.048                0.284449264     0.870000771
7.054                0.289480945     0.869289487
7.06                 0.294466908     0.868546543
7.066                0.299407802     0.867772827
7.072                0.304304269     0.866969192
7.078                 0.30915694     0.866136465
7.084                0.313966436     0.865275445
7.09                 0.318733372     0.864386904
7.096                0.323458353     0.863471587
7.102                0.328141973     0.862530216
7.108                0.332784819      0.86156349
7.114                0.337387469     0.860572081
7.12                  0.34195049     0.859556644
7.126                0.346474443     0.858517807
7.132                0.350959877     0.857456183
7.138                0.355407335     0.856372361
7.144                0.359817349     0.855266913
7.15                 0.364190444     0.854140391
7.156                0.368527136      0.85299333
7.162                0.372827931     0.851826247
7.168                0.377093329     0.850639645
7.174                 0.38132382     0.849434007
7.18                 0.385519885     0.848209804
7.186                0.389681999      0.84696749
7.192                0.393810628     0.845707506
7.198                 0.39790623     0.844430277
7.204                0.401969254     0.843136217
7.21                 0.406000144     0.841825726
7.216                0.409999333     0.840499191
7.222                 0.41396725     0.839156988
7.228                0.417904314     0.837799481
7.234                0.421810937     0.836427021
7.24                 0.425687525     0.835039951
7.246                0.429534476     0.833638602
7.252                0.433352182     0.832223295
7.258                0.437141026     0.830794341
7.264                0.440901387     0.829352042
7.27                 0.444633636      0.82789669
7.276                0.448338136     0.826428569
7.282                0.452015247     0.824947954
7.288                0.455665319     0.823455113
7.294                0.459288699     0.821950303
7.3                  0.462885727     0.820433777
7.306                0.466456734     0.818905777
7.312                 0.47000205     0.817366541
7.318                0.473521996     0.815816297
7.324                0.477016888     0.814255269
7.33                 0.480487036     0.812683672
7.336                0.483932746     0.811101717
7.342                0.487354318     0.809509607
7.348                0.490752045      0.80790754
7.354                0.494126218     0.806295708
7.36                 0.497477119     0.804674297
7.366                0.500805029     0.803043488
7.372                0.504110221     0.801403458
7.378                0.507392966     0.799754378
7.384                0.510653526     0.798096412
7.39                 0.513892163     0.796429723
7.396                0.517109132     0.794754467
7.402                0.520304683     0.793070796
7.408                0.523479064     0.791378859
7.414                0.526632516     0.789678799
7.42                 0.529765277     0.787970756
7.426                0.532877582     0.786254865
7.432                 0.53596966      0.78453126
7.438                0.539041737     0.782800067
7.444                0.542094034     0.781061413
7.45                  0.54512677     0.779315418
7.456                0.548140158     0.777562201
7.462                 0.55113441     0.775801876
7.468                0.554109731     0.774034555
7.474                0.557066326     0.772260347
7.48                 0.560004393     0.770479357
7.486                 0.56292413     0.768691688
7.492                0.565825729     0.766897441
7.498                0.568709379     0.765096712
7.504                0.571575267     0.763289597
7.51                 0.574423577     0.761476187
7.516                0.577254487     0.759656573
7.522                0.580068175     0.757830841
7.528                0.582864815     0.755999077
7.534                0.585644578     0.754161363
7.54                 0.588407632     0.752317781
7.546                0.591154141     0.750468408
7.552                0.593884269     0.748613321
7.558                0.596598175     0.746752595
7.564                0.599296015     0.744886301
7.57                 0.601977945     0.743014511
7.576                0.604644115     0.741137294
7.582                0.607294674     0.739254715
7.588                 0.60992977     0.737366842
7.594                0.612549547     0.735473736
7.6                  0.615154145     0.733575461
7.606                0.617743705     0.731672076
7.612                0.620318363     0.729763641
7.618                0.622878255     0.727850213
7.624                0.625423512     0.725931847
7.63                 0.627954265     0.724008598
7.636                0.630470642      0.72208052
7.642                0.632972769     0.720147664
7.648                 0.63546077      0.71821008
7.654                0.637934766     0.716267818
7.66                 0.640394878     0.714320926
7.666                0.642841223     0.712369451
7.672                0.645273917     0.710413438
7.678                0.647693075     0.708452932
7.684                0.650098807     0.706487976
7.69                 0.652491226     0.704518613
7.696                0.654870438     0.702544884
7.702                0.657236551     0.700566829
7.708                 0.65958967     0.698584488
7.714                0.661929898     0.696597899
7.72                 0.664257336       0.6946071
7.726                0.666572085     0.692612127
7.732                0.668874242     0.690613015
7.738                0.671163905       0.6886098
7.744                0.673441168     0.686602516
7.75                 0.675706125     0.684591196
7.756                0.677958869     0.682575872
7.762                0.680199489     0.680556576
7.768                0.682428074     0.678533338
7.774                0.684644713      0.67650619
7.78                 0.686849492     0.674475159
7.786                0.689042495     0.672440276
7.792                0.691223807     0.670401568
7.798                0.693393508     0.668359063
7.804                0.695551681     0.666312786
7.81                 0.697698404     0.664262766
7.816                0.699833755     0.662209026
7.822                0.701957813     0.660151593
7.828                0.704070652      0.65809049
7.834                0.706172348     0.656025741
7.84                 0.708262972     0.653957369
7.846                0.710342599     0.651885398
7.852                0.712411298      0.64980985
7.858                 0.71446914     0.647730745
7.864                0.716516194     0.645648106
7.87                 0.718552526     0.643561954
7.876                0.720578205     0.641472308
7.882                0.722593295     0.639379188
7.888                 0.72459786     0.637282614
7.894                0.726591965     0.635182604
7.9                  0.728575672     0.633079178
7.906                0.730549042     0.630972353
7.912                0.732512136     0.628862147
7.918                0.734465013     0.626748577
7.924                0.736407732      0.62463166
7.93                 0.738340351     0.622511413
7.936                0.740262926     0.620387852
7.942                0.742175514     0.618260993
7.948                0.744078168     0.616130851
7.954                0.745970944     0.613997441
7.96                 0.747853894     0.611860779
7.966                 0.74972707     0.609720878
7.972                0.751590526     0.607577753
7.978                 0.75344431     0.605431417
7.984                0.755288473     0.603281885
7.99                 0.757123064     0.601129169
7.996                0.758948131     0.598973282
8.002                0.760763723     0.596814238
8.008                0.762569885     0.594652048
8.014                0.764366664     0.592486725
8.02                 0.766154104      0.59031828
8.026                0.767932252     0.588146726
8.032                0.769701149     0.585972073
8.038                0.771460841     0.583794332
8.044                0.773211368     0.581613515
8.05                 0.774952774     0.579429633
8.056                0.776685098     0.577242694
8.062                0.778408381     0.575052711
8.068                0.780122664     0.572859692
8.074                0.781827985     0.570663648
8.08                 0.783524382     0.568464588
8.086                0.785211895     0.566262521
8.092                0.786890559     0.564057457
8.098                0.788560411     0.561849404
8.104                0.790221488     0.559638371
8.11                 0.791873825     0.557424367
8.116                0.793517457       0.5552074
8.122                0.795152418     0.552987479
8.128                0.796778742     0.550764611
8.134                0.798396461     0.548538804
8.14                 0.800005609     0.546310066
8.146                0.801606218     0.544078404
8.152                0.803198319     0.541843826
8.158                0.804781943     0.539606339
8.164                0.806357121      0.53736595
8.17                 0.807923882     0.535122665
8.176                0.809482257     0.532876492
8.182                0.811032273     0.530627437
8.188                0.812573959     0.528375507
8.194                0.814107344     0.526120707
8.2                  0.815632455     0.523863044
8.206                0.817149318     0.521602523
8.212                0.818657961     0.519339152
8.218                0.820158409     0.517072934
8.224                0.821650688     0.514803877
8.23                 0.823134823     0.512531985
8.236                0.824610839     0.510257265
8.242                 0.82607876      0.50797972
8.248                 0.82753861     0.505699356
8.254                0.828990412     0.503416178
8.26                 0.830434189     0.501130191
8.266                0.831869964       0.4988414
8.272                0.833297759     0.496549808
8.278                0.834717595     0.494255422
8.284                0.836129494     0.491958245
8.29                 0.837533477     0.489658281
8.296                0.838929565     0.487355535
8.302                0.840317777     0.485050011
8.308                0.841698133     0.482741712
8.314                0.843070652     0.480430642
8.32                 0.844435354     0.478116806
8.326                0.845792257     0.475800207
8.332                 0.84714138     0.473480848
8.338                0.848482739     0.471158733
8.344                0.849816354     0.468833865
8.35                  0.85114224     0.466506248
8.356                0.852460414     0.464175884
8.362                0.853770893     0.461842777
8.368                0.855073694      0.45950693
8.374                0.856368831     0.457168345
8.38                 0.857656321     0.454827026
8.386                0.858936178     0.452482975
8.392                0.860208417     0.450136194
8.398                0.861473052     0.447786687
8.404                0.862730097     0.445434456
8.41                 0.863979567     0.443079502
8.416                0.865221475     0.440721829
8.422                0.866455833     0.438361439
8.428                0.867682654     0.435998333
8.434                0.868901952     0.433632513
8.44                 0.870113738     0.431263982
8.446                0.871318023     0.428892742
8.452                0.872514821     0.426518793
8.458                0.873704141     0.424142139
8.464                0.874885995      0.42176278
8.47                 0.876060393     0.419380718
8.476                0.877227346     0.416995954
8.482                0.878386864      0.41460849
8.488                0.879538956     0.412218327
8.494                0.880683633     0.409825467
8.5                  0.881820903      0.40742991
8.506                0.882950775     0.405031657
8.512                0.884073258      0.40263071
8.518                 0.88518836     0.400227069
8.524                 0.88629609     0.397820736
8.53                 0.887396454      0.39541171
8.536                0.888489462     0.392999993
8.542                0.889575119     0.390585585
8.548                0.890653433     0.388168486
8.554                0.891724411     0.385748698
8.56                 0.892788059      0.38332622
8.566                0.893844383     0.380901053
8.572                 0.89489339     0.378473197
8.578                0.895935084     0.376042652
8.584                0.896969472     0.373609419
8.59                 0.897996558     0.371173496
8.596                0.899016347     0.368734885
8.602                0.900028844     0.366293584
8.608                0.901034054     0.363849594
8.614                0.902031979     0.361402914
8.62                 0.903022626     0.358953545
8.626                0.904005996     0.356501484
8.632                0.904982093     0.354046733
8.638                0.905950921      0.35158929
8.644                0.906912482     0.349129154
8.65                 0.907866778     0.346666326
8.656                0.908813813     0.344200803
8.662                0.909753588     0.341732585
8.668                0.910686105     0.339261672
8.674                0.911611366     0.336788061
8.68                 0.912529372     0.334311752
8.686                0.913440125     0.331832743
8.692                0.914343624     0.329351034
8.698                0.915239871     0.326866623
8.704                0.916128867     0.324379507
8.71                  0.91701061     0.321889687
8.716                0.917885102     0.319397159
8.722                0.918752342     0.316901923
8.728                0.919612329     0.314403977
8.734                0.920465062     0.311903318
8.74                 0.921310541     0.309399945
8.746                0.922148764     0.306893856
8.752                0.922979729     0.304385048
8.758                0.923803435      0.30187352
8.764                 0.92461988     0.299359269
8.77                 0.925429061     0.296842292
8.776                0.926230976     0.294322588
8.782                0.927025623     0.291800153
8.788                0.927812997     0.289274985
8.794                0.928593096     0.286747082
8.8                  0.929365917      0.28421644
8.806                0.930131455     0.281683057
8.812                0.930889707     0.279146929
8.818                0.931640669     0.276608054
8.824                0.932384335     0.274066428
8.83                 0.933120702     0.271522049
8.836                0.933849763     0.268974912
8.842                0.934571515     0.266425015
8.848                0.935285952     0.263872353
8.854                0.935993067     0.261316924
8.86                 0.936692856     0.258758723
8.866                0.937385311     0.256197747
8.872                0.938070426     0.253633991
8.878                0.938748195     0.251067453
8.884                 0.93941861     0.248498127
8.89                 0.940081665      0.24592601
8.896                0.940737352     0.243351096
8.902                0.941385662     0.240773383
8.908                0.942026589     0.238192865
8.914                0.942660124     0.235609538
8.92                 0.943286258     0.233023397
8.926                0.943904982     0.230434437
8.932                0.944516288     0.227842653
8.938                0.945120167     0.225248041
8.944                0.945716608     0.222650595
8.95                 0.946305601      0.22005031
8.956                0.946887137      0.21744718
8.962                0.947461206     0.214841201
8.968                0.948027796     0.212232367
8.974                0.948586897     0.209620671
8.98                 0.949138497     0.207006109
8.986                0.949682586     0.204388674
8.992                 0.95021915     0.201768361
8.998                0.950748178     0.199145163
9.004                0.951269659     0.196519073
9.01                 0.951783578     0.193890087
9.016                0.952289923     0.191258197
9.022                0.952788682     0.188623396
9.028                 0.95327984     0.185985678
9.034                0.953763383     0.183345037
9.04                 0.954239298     0.180701464
9.046                 0.95470757     0.178054954
9.052                0.955168184     0.175405498
9.058                0.955621126      0.17275309
9.064                0.956066379     0.170097722
9.07                 0.956503929     0.167439387
9.076                0.956933759     0.164778076
9.082                0.957355853     0.162113782
9.088                0.957770195     0.159446497
9.094                0.958176766     0.156776213
9.1                  0.958575551     0.154102921
9.106                0.958966532     0.151426614
9.112                0.959349689     0.148747282
9.118                0.959725007     0.146064917
9.124                0.960092464      0.14337951
9.13                 0.960452043     0.140691052
9.136                0.960803724     0.137999534
9.142                0.961147488     0.135304947
9.148                0.961483314     0.132607281
9.154                0.961811183     0.129906527
9.16                 0.962131072     0.127202674
9.166                0.962442961     0.124495715
9.172                0.962746829     0.121785637
9.178                0.963042653     0.119072431
9.184                0.963330412     0.116356087
9.19                 0.963610082     0.113636594
9.196                 0.96388164     0.110913941
9.202                0.964145063     0.108188118
9.208                0.964400326     0.105459114
9.214                0.964647407     0.102726918
9.22                 0.964886279    0.0999915171
9.226                0.965116918    0.0972529013
9.232                0.965339297    0.0945110587
9.238                0.965553392    0.0917659772
9.244                0.965759175    0.0890176449
9.25                  0.96595662    0.0862660497
9.256                0.966145698     0.083511179
9.262                0.966326384    0.0807530205
9.268                0.966498647    0.0779915613
9.274                0.966662459    0.0752267885
9.28                 0.966817791     0.072458689
9.286                0.966964614    0.0696872496
9.292                0.967102896    0.0669124567
9.298                0.967232608    0.0641342966
9.304                0.967353718    0.0613527556
9.31                 0.967466194    0.0585678194
9.316                0.967570004    0.0557794738
9.322                0.967665116    0.0529877044
9.328                0.967751495    0.0501924965
9.334                0.967829109    0.0473938351
9.34                 0.967897922    0.0445917053
9.346                  0.9679579    0.0417860917
9.352                0.968009007    0.0389769787
9.358                0.968051207    0.0361643508
9.364                0.968084463    0.0333481918
9.37                 0.968108738    0.0305284857
9.376                0.968123994    0.0277052161
9.382                0.968130193    0.0248783664
9.388                0.968127295    0.0220479197
9.394                 0.96811526     0.019213859
9.4                  0.968094049     0.016376167
9.406                 0.96806362    0.0135348263
9.412                0.968023931    0.0106898189
9.418                 0.96797494   0.00784112705
9.424                0.967916604    0.0049887324
9.43                 0.967848879   0.00213261652
9.436                0.967771721 -0.000727239309
9.442                0.967685083  -0.00359085403
9.448                0.967588922  -0.00645824686
9.454                0.967483188  -0.00932943725
9.46                 0.967367836   -0.0122044449
9.466                0.967242817   -0.0150832898
9.472                0.967108081   -0.0179659921
9.478                 0.96696358   -0.0208525723
9.484                0.966809262   -0.0237430512
9.49                 0.966645077   -0.0266374497
9.496                0.966470971   -0.0295357892
9.502                0.966286891   -0.0324380912
9.508                0.966092784   -0.0353443774
9.514                0.965888595   -0.0382546701
9.52                 0.965674268   -0.0411689915
9.526                0.965449747   -0.0440873642
9.532                0.965214972   -0.0470098113
9.538                0.964969887   -0.0499363559
9.544                0.964714432   -0.0528670214
9.55                 0.964448545   -0.0558018318
9.556                0.964172166    -0.058740811
9.562                0.963885232   -0.0616839835
9.568                 0.96358768   -0.0646313738
9.574                0.963279444    -0.067583007
9.58                  0.96296046   -0.0705389083
9.586                0.962630659   -0.0734991032
9.592                0.962289976   -0.0764636176
9.598                0.961938339   -0.0794324778
9.604                0.961575681   -0.0824057101
9.61                 0.961201927   -0.0853833413
9.616                0.960817008   -0.0883653986
9.622                0.960420848   -0.0913519094
9.628                0.960013372   -0.0943429014
9.634                0.959594505   -0.0973384026
9.64                 0.959164169    -0.100338441
9.646                0.958722284    -0.103343047
9.652                0.958268771    -0.106352247
9.658                0.957803548    -0.109366072
9.664                0.957326532    -0.112384552
9.67                 0.956837638    -0.115407716
9.676                0.956336782    -0.118435594
9.682                0.955823874    -0.121468218
9.688                0.955298827    -0.124505618
9.694                 0.95476155    -0.127547826
9.7                  0.954211952    -0.130594874
9.706                0.953649938    -0.133646792
9.712                0.953075413    -0.136703614
9.718                0.952488281    -0.139765373
9.724                0.951888443    -0.142832101
9.73                 0.951275799    -0.145903831
9.736                0.950650246    -0.148980598
9.742                0.950011682    -0.152062436
9.748                0.949359999    -0.155149378
9.754                0.948695091     -0.15824146
9.76                 0.948016848    -0.161338716
9.766                0.947325159    -0.164441182
9.772                0.946619911    -0.167548894
9.778                0.945900987    -0.170661888
9.784                 0.94516827    -0.173780199
9.79                 0.944421641    -0.176903866
9.796                0.943660978    -0.180032925
9.802                0.942886157    -0.183167413
9.808                0.942097051    -0.186307368
9.814                0.941293531    -0.189452828
9.82                 0.940475468    -0.192603831
9.826                0.939642727    -0.195760417
9.832                0.938795173    -0.198922624
9.838                0.937932667    -0.202090492
9.844                0.937055068     -0.20526406
9.85                 0.936162233    -0.208443367
9.856                0.935254015    -0.211628456
9.862                0.934330266    -0.214819365
9.868                0.933390834    -0.218016136
9.874                0.932435564     -0.22121881
9.88                 0.931464299    -0.224427428
9.886                0.930476877    -0.227642032
9.892                0.929473136    -0.230862663
9.898                0.928452909    -0.234089365
9.904                0.927416026    -0.237322179
9.91                 0.926362313    -0.240561148
9.916                0.925291594    -0.243806315
9.922                0.924203689    -0.247057723
9.928                0.923098415    -0.250315416
9.934                0.921975584    -0.253579436
9.94                 0.920835006    -0.256849827
9.946                0.919676487    -0.260126633
9.952                0.918499828    -0.263409899
9.958                0.917304827    -0.266699667
9.964                0.916091278    -0.269995983
9.97                 0.914858971     -0.27329889
9.976                 0.91360769    -0.276608434
9.982                0.912337218    -0.279924658
9.988                0.911047331    -0.283247606
9.994                0.909737802    -0.286577324
10                   0.908408398    -0.289913855
10.006               0.907058882    -0.293257244
10.012               0.905689013    -0.296607535
10.018               0.904298544    -0.299964773
10.024               0.902887222    -0.303329001
10.03                0.901454791    -0.306700264
10.036               0.900000989    -0.310078605
10.042               0.898525548    -0.313464067
10.048               0.897028194    -0.316856694
10.054               0.895508648    -0.320256529
10.06                0.893966627    -0.323663614
10.066               0.892401837    -0.327077992
10.072               0.890813984    -0.330499704
10.078               0.889202763    -0.333928791
10.084               0.887567864    -0.337365294
10.09                0.885908971    -0.340809254
10.096               0.884225762    -0.344260708
10.102               0.882517906    -0.347719698
10.108               0.880785065    -0.351186259
10.114               0.879026896    -0.354660429
10.12                0.877243046    -0.358142245
10.126               0.875433156    -0.361631742
10.132               0.873596858    -0.365128953
10.138               0.871733776    -0.368633912
10.144               0.869843528     -0.37214665
10.15                0.867925719    -0.375667198
10.156                0.86597995    -0.379195585
10.162               0.864005811    -0.382731838
10.168               0.862002882    -0.386275982
10.174               0.859970734    -0.389828042
10.18                 0.85790893    -0.393388041
10.186               0.855817021    -0.396955997
10.192                0.85369455     -0.40053193
10.198               0.851541048    -0.404115855
10.204               0.849356034    -0.407707786
10.21                 0.84713902    -0.411307732
10.216               0.844889503    -0.414915704
10.222               0.842606971    -0.418531705
10.228               0.840290898    -0.422155738
10.234               0.837940747    -0.425787802
10.24                0.835555969    -0.429427892
10.246               0.833136001    -0.433076001
10.252               0.830680267    -0.436732116
10.258               0.828188178    -0.440396221
10.264               0.825659131    -0.444068297
10.27                0.823092509    -0.447748318
10.276               0.820487679    -0.451436254
10.282               0.817843994     -0.45513207
10.288               0.815160792    -0.458835727
10.294               0.812437395    -0.462547178
10.3                 0.809673107    -0.466266371
10.306               0.806867217    -0.469993248
10.312               0.804018995    -0.473727744
10.318               0.801127697    -0.477469786
10.324               0.798192557    -0.481219296
10.33                0.795212792    -0.484976184
10.336               0.792187599    -0.488740356
10.342               0.789116157    -0.492511707
10.348               0.785997623    -0.496290121
10.354               0.782831134    -0.500075477
10.36                0.779615805    -0.503867639
10.366               0.776350731    -0.507666462
10.372               0.773034983     -0.51147179
10.378               0.769667608    -0.515283454
10.384               0.766247631    -0.519101272
10.39                0.762774053    -0.522925049
10.396               0.759245847    -0.526754577
10.402               0.755661963    -0.530589631
10.408               0.752021323    -0.534429971
10.414               0.748322824    -0.538275341
10.42                0.744565334    -0.542125466
10.426                0.74074769    -0.545980054
10.432               0.736868704    -0.549838793
10.438               0.732927154     -0.55370135
10.444               0.728921791    -0.557567372
10.45                 0.72485133     -0.56143648
10.456               0.720714456    -0.565308275
10.462                0.71650982    -0.569182329
10.468                0.71223604     -0.57305819
10.474               0.707891697    -0.576935378
10.48                0.703475337     -0.58081338
10.486               0.698985469    -0.584691656
10.492               0.694420563    -0.588569631
10.498               0.689779053    -0.592446696
10.504               0.685059331    -0.596322204
10.51                0.680259748    -0.600195471
10.516               0.675378617    -0.604065773
10.522               0.670414204    -0.607932342
10.528               0.665364735    -0.611794366
10.534                0.66022839    -0.615650984