! TOUCHSTONE file generated by CST MICROWAVE STUDIO
! Date and time: Wed Sep 25 16:55:54 2024
! Project name: unit_cell_optimization_L=10.0_Wgap=1.0_Wline=1.42.cst
! Parameters = {A=1.40924; AB_sqInv=0.503371; B=0.025494; C0=2.097; Cj=0.183267; Cp=0.075; Ct=0.258061; ImZ=-61.6735; L=10; L1=0.3; L_back=16.1559; Lp=0.35; Lpad=0.75; M=1.199; R=5.41; R_cav=0.5; R_sogl=4.36377; ReZ=2.72324; Rt=2.72324; V=19.8; Vj=2.984; W=10; W1=-0.15; W2=-0.15; Wcoop=3.29; Wgap=1; Wline=1.42; Wpad=0.475; Wpadgap=0.35; Xpad1=1.6225; Xpad2=0.7975; Xpad3=1.6225; Xpad4=0.7975; Xvar_centre=1.21; angle_sogl=144.599; f=0.01; f0=11; fmax=11.25; fmin=10.75; h=0.8; phase=0; phi=0; sogl_proc=0.641844; th=0.035; theta=0}
! Header version: 2024
! Port assignment regex: !\s*Touchstone port\s*([0-9]+)\s*=\s*(CST MWS port|CST DES external port|CST DES block port)\s*(.+)\s* \(\"(.*)\"\)(\s*mode\s*([0-9]+))?.*
! Touchstone port assignment:
! Touchstone port 1 = CST MWS port Zmax ("") mode 1
! S-Parameters are not renormalized. Unphysical impedance of 50 will be written to the file.
# GHz S RI R 50
7                   -0.509358754      0.48175539
7.006               -0.499676068      0.50031466
7.012               -0.489663331     0.518257672
7.018               -0.479353312     0.535591317
7.024               -0.468777085     0.552323761
7.03                -0.457964046     0.568464285
7.036               -0.446941938     0.584023125
7.042               -0.435736879     0.599011336
7.048               -0.424373408     0.613440654
7.054               -0.412874528     0.627323377
7.06                -0.401261757     0.640672256
7.066               -0.389555185     0.653500394
7.072               -0.377773529     0.665821155
7.078               -0.365934193     0.677648081
7.084               -0.354053327     0.688994823
7.09                -0.342145891     0.699875073
7.096               -0.330225709     0.710302505
7.102               -0.318305534      0.72029073
7.108               -0.306397107     0.729853246
7.114               -0.294511208       0.7390034
7.12                -0.282657719     0.747754361
7.126               -0.270845675     0.756119083
7.132               -0.259083314     0.764110286
7.138               -0.247378131     0.771740438
7.144               -0.235736923     0.779021732
7.15                -0.224165836     0.785966079
7.156               -0.212670409     0.792585095
7.162               -0.201255614     0.798890093
7.168               -0.189925896      0.80489208
7.174                -0.17868521     0.810601751
7.18                -0.167537056     0.816029486
7.186               -0.156484513     0.821185355
7.192                -0.14553027     0.826079114
7.198               -0.134676655      0.83072021
7.204               -0.123925659     0.835117786
7.21                -0.113278969     0.839280679
7.216               -0.102737986     0.843217433
7.222              -0.0923038514     0.846936296
7.228              -0.0819774647     0.850445235
7.234               -0.071759506     0.853751935
7.24               -0.0616504531     0.856863809
7.246              -0.0516505988     0.859788006
7.252              -0.0417600669     0.862531414
7.258              -0.0319788269     0.865100673
7.264              -0.0223067078     0.867502179
7.27               -0.0127434111     0.869742088
7.276             -0.00328852212     0.871826333
7.282              0.00605847828     0.873760621
7.288               0.0152982041     0.875550447
7.294               0.0244313546     0.877201097
7.3                 0.0334587053      0.87871766
7.306               0.0423811005      0.88010503
7.312               0.0511994451     0.881367916
7.318               0.0599146984     0.882510845
7.324               0.0685278672     0.883538174
7.33                0.0770400005     0.884454093
7.336               0.0854521837     0.885262629
7.342               0.0937655336     0.885967658
7.348                0.101981194     0.886572905
7.354                0.110100332     0.887081952
7.36                 0.118124134     0.887498246
7.366                  0.1260538     0.887825098
7.372                0.133890545     0.888065695
7.378                 0.14163559     0.888223099
7.384                0.149290166     0.888300258
7.39                 0.156855506     0.888300005
7.396                0.164332846     0.888225063
7.402                0.171723422     0.888078054
7.408                0.179028466     0.887861498
7.414                0.186249209      0.88757782
7.42                 0.193386875     0.887229352
7.426                0.200442683     0.886818337
7.432                0.207417844     0.886346933
7.438                0.214313559     0.885817217
7.444                0.221131019     0.885231186
7.45                 0.227871407     0.884590764
7.456                0.234535891     0.883897801
7.462                 0.24112563     0.883154076
7.468                0.247641767     0.882361305
7.474                0.254085435     0.881521135
7.48                 0.260457751     0.880635156
7.486                0.266759817     0.879704897
7.492                0.272992724     0.878731829
7.498                0.279157545      0.87771737
7.504                0.285255338     0.876662885
7.51                 0.291287149      0.87556969
7.516                0.297254004     0.874439049
7.522                0.303156918     0.873272184
7.528                0.308996886      0.87207027
7.534                0.314774892     0.870834438
7.54                   0.3204919     0.869565781
7.546                0.326148862      0.86826535
7.552                0.331746712     0.866934158
7.558                 0.33728637     0.865573182
7.564                0.342768739     0.864183364
7.57                 0.348194709     0.862765613
7.576                0.353565152     0.861320803
7.582                0.358880926     0.859849778
7.588                0.364142876     0.858353354
7.594                0.369351829     0.856832315
7.6                  0.374508599     0.855287419
7.606                0.379613985     0.853719396
7.612                0.384668772     0.852128953
7.618                0.389673732     0.850516768
7.624                 0.39462962     0.848883498
7.63                 0.399537179     0.847229778
7.636                 0.40439714     0.845556218
7.642                0.409210218      0.84386341
7.648                0.413977115     0.842151922
7.654                0.418698523     0.840422306
7.66                 0.423375117     0.838675093
7.666                0.428007562     0.836910796
7.672                0.432596511      0.83512991
7.678                0.437142602     0.833332915
7.684                0.441646465     0.831520272
7.69                 0.446108716     0.829692429
7.696                0.450529958     0.827849817
7.702                0.454910786     0.825992854
7.708                0.459251782     0.824121942
7.714                0.463553516     0.822237472
7.72                  0.46781655     0.820339819
7.726                0.472041433     0.818429347
7.732                0.476228705      0.81650641
7.738                0.480378895     0.814571346
7.744                0.484492523     0.812624486
7.75                 0.488570099     0.810666146
7.756                0.492612122     0.808696635
7.762                0.496619084     0.806716251
7.768                0.500591466     0.804725281
7.774                 0.50452974     0.802724004
7.78                  0.50843437     0.800712689
7.786                 0.51230581     0.798691597
7.792                0.516144508      0.79666098
7.798                0.519950901     0.794621083
7.804                0.523725419     0.792572141
7.81                 0.527468484     0.790514384
7.816                 0.53118051     0.788448032
7.822                0.534861902       0.7863733
7.828                 0.53851306     0.784290395
7.834                0.542134375     0.782199518
7.84                 0.545726231     0.780100864
7.846                0.549289004     0.777994622
7.852                0.552823065     0.775880972
7.858                0.556328776     0.773760093
7.864                0.559806495     0.771632154
7.87                  0.56325657     0.769497323
7.876                0.566679345     0.767355759
7.882                0.570075157     0.765207617
7.888                0.573444338      0.76305305
7.894                0.576787211     0.760892202
7.9                  0.580104096     0.758725215
7.906                0.583395306     0.756552227
7.912                0.586661149      0.75437337
7.918                0.589901926     0.752188773
7.924                0.593117933     0.749998561
7.93                 0.596309463     0.747802854
7.936                0.599476799     0.745601771
7.942                0.602620224     0.743395425
7.948                0.605740013     0.741183927
7.954                0.608836435     0.738967382
7.96                 0.611909758     0.736745896
7.966                0.614960243     0.734519568
7.972                0.617988145     0.732288496
7.978                0.620993716     0.730052774
7.984                0.623977205     0.727812495
7.99                 0.626938853     0.725567748
7.996                  0.6298789     0.723318617
8.002                0.632797581     0.721065189
8.008                0.635695125     0.718807542
8.014                 0.63857176     0.716545758
8.02                 0.641427706     0.714279911
8.026                0.644263184     0.712010076
8.032                0.647078408     0.709736325
8.038                0.649873588     0.707458728
8.044                0.652648933     0.705177353
8.05                 0.655404645     0.702892265
8.056                0.658140925     0.700603529
8.062                0.660857971     0.698311206
8.068                0.663555974     0.696015357
8.074                0.666235126     0.693716039
8.08                 0.668895613      0.69141331
8.086                0.671537618     0.689107225
8.092                0.674161323     0.686797837
8.098                0.676766905     0.684485198
8.104                0.679354538     0.682169358
8.11                 0.681924393     0.679850367
8.116                0.684476639     0.677528271
8.122                0.687011443     0.675203116
8.128                0.689528966     0.672874949
8.134                 0.69202937     0.670543811
8.14                 0.694512811     0.668209746
8.146                0.696979445     0.665872794
8.152                0.699429423     0.663532995
8.158                0.701862896     0.661190387
8.164                0.704280011     0.658845009
8.17                 0.706680913     0.656496897
8.176                0.709065744     0.654146086
8.182                0.711434645     0.651792611
8.188                0.713787752     0.649436504
8.194                0.716125202     0.647077799
8.2                  0.718447128     0.644716528
8.206                0.720753662     0.642352719
8.212                0.723044931     0.639986405
8.218                0.725321063     0.637617613
8.224                0.727582183     0.635246371
8.23                 0.729828414     0.632872707
8.236                0.732059876     0.630496647
8.242                0.734276688     0.628118218
8.248                0.736478967     0.625737443
8.254                0.738666829     0.623354348
8.26                 0.740840386     0.620968956
8.266                0.742999749      0.61858129
8.272                0.745145029     0.616191372
8.278                0.747276332     0.613799224
8.284                0.749393766     0.611404867
8.29                 0.751497434     0.609008321
8.296                 0.75358744     0.606609607
8.302                0.755663884     0.604208743
8.308                0.757726866     0.601805748
8.314                0.759776484     0.599400642
8.32                 0.761812834      0.59699344
8.326                 0.76383601     0.594584161
8.332                0.765846107     0.592172821
8.338                0.767843217     0.589759436
8.344                0.769827429     0.587344023
8.35                 0.771798832     0.584926596
8.356                0.773757515      0.58250717
8.362                0.775703563      0.58008576
8.368                0.777637061      0.57766238
8.374                0.779558093     0.575237043
8.38                 0.781466741     0.572809763
8.386                0.783363086     0.570380553
8.392                0.785247208     0.567949424
8.398                0.787119185      0.56551639
8.404                0.788979094     0.563081462
8.41                 0.790827011     0.560644651
8.416                0.792663012     0.558205969
8.422                0.794487169     0.555765425
8.428                0.796299556     0.553323032
8.434                0.798100243     0.550878798
8.44                 0.799889301     0.548432734
8.446                  0.8016668      0.54598485
8.452                0.803432807     0.543535154
8.458                0.805187389     0.541083655
8.464                0.806930613     0.538630363
8.47                 0.808662544     0.536175286
8.476                0.810383245     0.533718432
8.482                0.812092779     0.531259808
8.488                0.813791209     0.528799424
8.494                0.815478595     0.526337285
8.5                  0.817154998     0.523873401
8.506                0.818820478     0.521407776
8.512                0.820475091     0.518940419
8.518                0.822118896     0.516471336
8.524                0.823751949     0.514000534
8.53                 0.825374306     0.511528018
8.536                0.826986022     0.509053794
8.542                 0.82858715     0.506577869
8.548                0.830177743     0.504100248
8.554                0.831757855     0.501620936
8.56                 0.833327535     0.499139939
8.566                0.834886836     0.496657262
8.572                0.836435806     0.494172909
8.578                0.837974495     0.491686886
8.584                0.839502951     0.489199197
8.59                 0.841021222     0.486709847
8.596                0.842529355     0.484218839
8.602                0.844027395     0.481726178
8.608                0.845515389     0.479231868
8.614                 0.84699338     0.476735912
8.62                 0.848461413     0.474238315
8.626                0.849919531      0.47173908
8.632                0.851367776     0.469238209
8.638                0.852806191     0.466735708
8.644                0.854234816     0.464231578
8.65                 0.855653693     0.461725823
8.656                0.857062861     0.459218445
8.662                 0.85846236     0.456709448
8.668                0.859852228     0.454198833
8.674                0.861232504     0.451686605
8.68                 0.862603224     0.449172764
8.686                0.863964426     0.446657313
8.692                0.865316146     0.444140255
8.698                 0.86665842     0.441621591
8.704                0.867991282     0.439101324
8.71                 0.869314768     0.436579456
8.716                0.870628911     0.434055987
8.722                0.871933745      0.43153092
8.728                0.873229302     0.429004257
8.734                0.874515615     0.426475998
8.74                 0.875792715     0.423946145
8.746                0.877060635       0.4214147
8.752                0.878319403     0.418881664
8.758                0.879569052     0.416347038
8.764                 0.88080961     0.413810822
8.77                 0.882041107     0.411273018
8.776                0.883263571     0.408733626
8.782                 0.88447703     0.406192648
8.788                0.885681513     0.403650083
8.794                0.886877046     0.401105933
8.8                  0.888063656     0.398560198
8.806                 0.88924137     0.396012879
8.812                0.890410212     0.393463975
8.818                 0.89157021     0.390913487
8.824                0.892721387     0.388361415
8.83                 0.893863767     0.385807759
8.836                0.894997376     0.383252519
8.842                0.896122236     0.380695696
8.848                0.897238371     0.378137289
8.854                0.898345803     0.375577297
8.86                 0.899444554     0.373015721
8.866                0.900534646      0.37045256
8.872                0.901616102     0.367887813
8.878                 0.90268894     0.365321481
8.884                0.903753184     0.362753562
8.89                 0.904808851     0.360184056
8.896                0.905855963     0.357612963
8.902                0.906894538     0.355040281
8.908                0.907924596     0.352466009
8.914                0.908946155     0.349890147
8.92                 0.909959233     0.347312693
8.926                0.910963849     0.344733647
8.932                0.911960019     0.342153007
8.938                 0.91294776     0.339570772
8.944                 0.91392709     0.336986941
8.95                 0.914898024     0.334401512
8.956                0.915860578     0.331814485
8.962                0.916814769     0.329225857
8.968                 0.91776061     0.326635626
8.974                0.918698118     0.324043793
8.98                 0.919627306     0.321450353
8.986                0.920548188     0.318855307
8.992                0.921460779     0.316258651
8.998                0.922365092     0.313660385
9.004                0.923261139     0.311060506
9.01                 0.924148934     0.308459011
9.016                0.925028488       0.3058559
9.022                0.925899814     0.303251169
9.028                0.926762924     0.300644817
9.034                0.927617829     0.298036841
9.04                 0.928464539     0.295427239
9.046                0.929303066     0.292816008
9.052                 0.93013342     0.290203146
9.058                0.930955611      0.28758865
9.064                0.931769648     0.284972517
9.07                  0.93257554     0.282354746
9.076                0.933373298     0.279735332
9.082                0.934162929     0.277114273
9.088                0.934944443     0.274491566
9.094                0.935717846     0.271867208
9.1                  0.936483146     0.269241196
9.106                0.937240352     0.266613527
9.112                 0.93798947     0.263984198
9.118                0.938730507     0.261353204
9.124                0.939463469     0.258720543
9.13                 0.940188362     0.256086211
9.136                0.940905193     0.253450206
9.142                0.941613967     0.250812522
9.148                0.942314688     0.248173156
9.154                0.943007363     0.245532105
9.16                 0.943691994     0.242889365
9.166                0.944368588     0.240244931
9.172                0.945037146       0.2375988
9.178                0.945697674     0.234950968
9.184                0.946350175      0.23230143
9.19                 0.946994651     0.229650182
9.196                0.947631105      0.22699722
9.202                0.948259539     0.224342539
9.208                0.948879957     0.221686135
9.214                0.949492358     0.219028003
9.22                 0.950096745     0.216368139
9.226                 0.95069312     0.213706537
9.232                0.951281482     0.211043193
9.238                0.951861832     0.208378102
9.244                 0.95243417     0.205711259
9.25                 0.952998497     0.203042659
9.256                0.953554812     0.200372296
9.262                0.954103114     0.197700165
9.268                0.954643402     0.195026261
9.274                0.955175675     0.192350578
9.28                 0.955699931     0.189673111
9.286                0.956216168     0.186993853
9.292                0.956724383       0.1843128
9.298                0.957224575     0.181629945
9.304                 0.95771674     0.178945282
9.31                 0.958200874     0.176258805
9.316                0.958676975     0.173570508
9.322                0.959145038     0.170880385
9.328                0.959605059     0.168188429
9.334                0.960057034     0.165494634
9.34                 0.960500957     0.162798992
9.346                0.960936824     0.160101498
9.352                0.961364629     0.157402145
9.358                0.961784365     0.154700925
9.364                0.962196027     0.151997831
9.37                 0.962599608     0.149292857
9.376                0.962995102     0.146585995
9.382                  0.9633825     0.143877238
9.388                0.963761796     0.141166578
9.394                0.964132982     0.138454007
9.4                  0.964496048     0.135739518
9.406                0.964850988     0.133023103
9.412                0.965197791     0.130304753
9.418                0.965536448     0.127584462
9.424                 0.96586695      0.12486222
9.43                 0.966189287     0.122138019
9.436                0.966503448     0.119411851
9.442                0.966809422     0.116683706
9.448                0.967107199     0.113953577
9.454                0.967396767     0.111221455
9.46                 0.967678113     0.108487329
9.466                0.967951227     0.105751192
9.472                0.968216094     0.103013033
9.478                0.968472703     0.100272844
9.484                0.968721039     0.097530615
9.49                  0.96896109    0.0947863358
9.496                 0.96919284    0.0920399966
9.502                0.969416275    0.0892915877
9.508                 0.96963138    0.0865410987
9.514                 0.96983814    0.0837885193
9.52                  0.97003654    0.0810338391
9.526                0.970226561    0.0782770475
9.532                 0.97040819    0.0755181336
9.538                0.970581407    0.0727570865
9.544                0.970746196    0.0699938951
9.55                 0.970902538    0.0672285481
9.556                0.971050416    0.0644610341
9.562                 0.97118981    0.0616913416
9.568                0.971320702    0.0589194586
9.574                0.971443071    0.0561453734
9.58                 0.971556897    0.0533690737
9.586                0.971662161    0.0505905474
9.592                0.971758839    0.0478097819
9.598                0.971846912    0.0450267646
9.604                0.971926358    0.0422414827
9.61                 0.971997152    0.0394539232
9.616                0.972059273    0.0366640729
9.622                0.972112697    0.0338719184
9.628                  0.9721574    0.0310774461
9.634                0.972193357    0.0282806423
9.64                 0.972220543    0.0254814931
9.646                0.972238932    0.0226799843
9.652                0.972248499    0.0198761015
9.658                0.972249217    0.0170698302
9.664                0.972241059    0.0142611556
9.67                 0.972223996    0.0114500627
9.676                   0.972198   0.00863653651
9.682                0.972163042   0.00582056146
9.688                0.972119094   0.00300212202
9.694                0.972066124  0.000181202353
9.7                  0.972004102  -0.00264221357
9.706                0.971932996  -0.00546814202
9.712                0.971852775  -0.00829659947
9.718                0.971763406   -0.0111276026
9.724                0.971664857   -0.0139611685
9.73                 0.971557092   -0.0167973142
9.736                0.971440077   -0.0196360572
9.742                0.971313778    -0.022477415
9.748                0.971178158   -0.0253214057
9.754                 0.97103318   -0.0281680474
9.76                 0.970878809   -0.0310173584
9.766                0.970715005   -0.0338693574
9.772                0.970541729   -0.0367240633
9.778                0.970358943   -0.0395814953
9.784                0.970166606   -0.0424416727
9.79                 0.969964678   -0.0453046152
9.796                0.969753116   -0.0481703428
9.802                0.969531878   -0.0510388757
9.808                 0.96930092   -0.0539102344
9.814                0.969060199   -0.0567844395
9.82                  0.96880967   -0.0596615123
9.826                0.968549286   -0.0625414739
9.832                0.968279002    -0.065424346
9.838                0.967998769   -0.0683101505
9.844                 0.96770854   -0.0711989096
9.85                 0.967408264   -0.0740906457
9.856                0.967097892   -0.0769853816
9.862                0.966777373   -0.0798831404
9.868                0.966446654   -0.0827839455
9.874                0.966105682   -0.0856878206
9.88                 0.965754403   -0.0885947896
9.886                0.965392762   -0.0915048769
9.892                0.965020704   -0.0944181071
9.898                 0.96463817   -0.0973345053
9.904                0.964245103    -0.100254097
9.91                 0.963841443    -0.103176907
9.916                0.963427131    -0.106102961
9.922                0.963002103    -0.109032287
9.928                0.962566299    -0.111964911
9.934                0.962119653    -0.114900859
9.94                 0.961662101    -0.117840158
9.946                0.961193577    -0.120782838
9.952                0.960714013    -0.123728925
9.958                0.960223341    -0.126678447
9.964                0.959721489    -0.129631435
9.97                 0.959208389    -0.132587916
9.976                0.958683965     -0.13554792
9.982                0.958148145    -0.138511477
9.988                0.957600853    -0.141478618
9.994                0.957042012    -0.144449372
10                   0.956471543     -0.14742377
10.006               0.955889368    -0.150401845
10.012               0.955295405    -0.153383628
10.018               0.954689571     -0.15636915
10.024               0.954071781    -0.159358444
10.03                 0.95344195    -0.162351544
10.036                0.95279999    -0.165348482
10.042               0.952145812    -0.168349293
10.048               0.951479324     -0.17135401
10.054               0.950800435    -0.174362667
10.06                0.950109049      -0.1773753
10.066                0.94940507    -0.180391944
10.072                 0.9486884    -0.183412635
10.078               0.947958939    -0.186437409
10.084               0.947216585    -0.189466302
10.09                0.946461234    -0.192499352
10.096                0.94569278    -0.195536595
10.102               0.944911114    -0.198578071
10.108               0.944116127    -0.201623816
10.114               0.943307707     -0.20467387
10.12                0.942485738    -0.207728271
10.126               0.941650105     -0.21078706
10.132               0.940800687    -0.213850277
10.138               0.939937363    -0.216917961
10.144                0.93906001    -0.219990153
10.15                0.938168502    -0.223066896
10.156               0.937262709     -0.22614823
10.162               0.936342499    -0.229234198
10.168                0.93540774    -0.232324842
10.174               0.934458294    -0.235420206
10.18                0.933494021    -0.238520332
10.186                0.93251478    -0.241625265
10.192               0.931520425    -0.244735049
10.198               0.930510808    -0.247849729
10.204               0.929485778     -0.25096935
10.21                 0.92844518    -0.254093957
10.216               0.927388857    -0.257223596
10.222               0.926316649    -0.260358315
10.228                0.92522839    -0.263498159
10.234               0.924123915    -0.266643176
10.24                0.923003051    -0.269793413
10.246               0.921865625    -0.272948919
10.252               0.920711458    -0.276109742
10.258               0.919540369    -0.279275931
10.264               0.918352171    -0.282447534
10.27                0.917146675    -0.285624601
10.276               0.915923688    -0.288807183
10.282               0.914683011    -0.291995329
10.288               0.913424443     -0.29518909
10.294               0.912147777    -0.298388516
10.3                 0.910852802    -0.301593659
10.306               0.909539303     -0.30480457
10.312                0.90820706      -0.3080213
10.318               0.906855848    -0.311243903
10.324               0.905485437    -0.314472429
10.33                0.904095593    -0.317706931
10.336               0.902686075    -0.320947463
10.342               0.901256639    -0.324194075
10.348               0.899807033    -0.327446822
10.354               0.898337002    -0.330705756
10.36                0.896846282    -0.333970931
10.366               0.895334608      -0.3372424
10.372               0.893801703    -0.340520215
10.378               0.892247289     -0.34380443
10.384               0.890671079    -0.347095098
10.39                 0.88907278    -0.350392272
10.396               0.887452092    -0.353696005
10.402               0.885808708     -0.35700635
10.408               0.884142316     -0.36032336
10.414               0.882452593    -0.363647086
10.42                0.880739212    -0.366977581
10.426               0.879001837    -0.370314896
10.432               0.877240123    -0.373659083
10.438                0.87545372    -0.377010193
10.444               0.873642265    -0.380368275
10.45                0.871805391    -0.383733379
10.456                0.86994272    -0.387105555
10.462               0.868053866     -0.39048485
10.468               0.866138432    -0.393871311
10.474               0.864196013    -0.397264986
10.48                0.862226193    -0.400665918
10.486               0.860228548    -0.404074153
10.492               0.858202642    -0.407489733
10.498               0.856148028    -0.410912701
10.504               0.854064248    -0.414343095
10.51                0.851950835    -0.417780956
10.516               0.849807308    -0.421226319
10.522               0.847633175    -0.424679219
10.528               0.845427931     -0.42813969
10.534               0.843191058    -0.431607763