! TOUCHSTONE file generated by CST MICROWAVE STUDIO
! Date and time: Wed Sep 25 16:55:53 2024
! Project name: unit_cell_optimization_L=10.0_Wgap=1.0_Wline=1.42.cst
! Parameters = {A=1.1164; AB_sqInv=0.80193; B=0.025494; C0=2.097; Cj=0.644347; Cp=0.075; Ct=0.71614; ImZ=-22.224; L=10; L1=0.3; L_back=16.1559; Lp=0.35; Lpad=0.75; M=1.199; R=5.41; R_cav=0.5; R_sogl=4.36377; ReZ=4.33844; Rt=4.33844; V=5; Vj=2.984; W=10; W1=-0.15; W2=-0.15; Wcoop=3.29; Wgap=1; Wline=1.42; Wpad=0.475; Wpadgap=0.35; Xpad1=1.6225; Xpad2=0.7975; Xpad3=1.6225; Xpad4=0.7975; Xvar_centre=1.21; angle_sogl=144.599; f=0.01; f0=11; fmax=11.25; fmin=10.75; h=0.8; phase=0; phi=0; sogl_proc=0.641844; th=0.035; theta=0}
! Header version: 2024
! Port assignment regex: !\s*Touchstone port\s*([0-9]+)\s*=\s*(CST MWS port|CST DES external port|CST DES block port)\s*(.+)\s* \(\"(.*)\"\)(\s*mode\s*([0-9]+))?.*
! Touchstone port assignment:
! Touchstone port 1 = CST MWS port Zmax ("") mode 1
! S-Parameters are not renormalized. Unphysical impedance of 50 will be written to the file.
# GHz S RI R 50
7                    0.677068633     0.706360301
7.006                0.678734002     0.704779777
7.012                0.680395838     0.703194795
7.018                0.682054132     0.701605359
7.024                0.683708876     0.700011473
7.03                  0.68536006     0.698413142
7.036                0.687007675      0.69681037
7.042                0.688651713     0.695203161
7.048                0.690292165      0.69359152
7.054                 0.69192902     0.691975452
7.06                 0.693562272     0.690354959
7.066                0.695191909     0.688730048
7.072                0.696817923     0.687100722
7.078                0.698440306     0.685466985
7.084                0.700059048     0.683828841
7.09                  0.70167414     0.682186295
7.096                0.703285573     0.680539351
7.102                0.704893338     0.678888013
7.108                0.706497426     0.677232285
7.114                0.708097828     0.675572172
7.12                 0.709694535     0.673907676
7.126                0.711287537     0.672238803
7.132                0.712876827     0.670565556
7.138                0.714462393      0.66888794
7.144                0.716044229     0.667205958
7.15                 0.717622323     0.665519614
7.156                0.719196668     0.663828912
7.162                0.720767254     0.662133857
7.168                0.722334072     0.660434451
7.174                0.723897113     0.658730699
7.18                 0.725456367     0.657022604
7.186                0.727011826     0.655310171
7.192                0.728563481     0.653593402
7.198                0.730111321     0.651872303
7.204                0.731655339     0.650146876
7.21                 0.733195525     0.648417125
7.216                0.734731869     0.646683053
7.222                0.736264362     0.644944665
7.228                0.737792996     0.643201964
7.234                0.739317761     0.641454953
7.24                 0.740838647     0.639703636
7.246                0.742355646     0.637948017
7.252                0.743868748     0.636188098
7.258                0.745377944     0.634423884
7.264                0.746883224     0.632655377
7.27                  0.74838458     0.630882582
7.276                0.749882001       0.6291055
7.282                0.751375479     0.627324137
7.288                0.752865004     0.625538494
7.294                0.754350566     0.623748576
7.3                  0.755832157     0.621954385
7.306                0.757309767     0.620155924
7.312                0.758783387     0.618353197
7.318                0.760253006     0.616546207
7.324                0.761718616     0.614734957
7.33                 0.763180207      0.61291945
7.336                 0.76463777     0.611099689
7.342                0.766091294     0.609275676
7.348                0.767540771     0.607447416
7.354                0.768986191      0.60561491
7.36                 0.770427544     0.603778162
7.366                0.771864821     0.601937174
7.372                0.773298012     0.600091949
7.378                0.774727108     0.598242491
7.384                0.776152098     0.596388801
7.39                 0.777572973     0.594530883
7.396                0.778989723     0.592668739
7.402                0.780402339     0.590802371
7.408                0.781810811     0.588931784
7.414                0.783215128     0.587056977
7.42                 0.784615282     0.585177956
7.426                0.786011262     0.583294721
7.432                0.787403059     0.581407276
7.438                0.788790662     0.579515622
7.444                0.790174061     0.577619763
7.45                 0.791553248       0.5757197
7.456                0.792928211     0.573815435
7.462                 0.79429894     0.571906972
7.468                0.795665426     0.569994312
7.474                0.797027659     0.568077458
7.48                 0.798385628      0.56615641
7.486                0.799739323     0.564231173
7.492                0.801088735     0.562301747
7.498                0.802433852     0.560368136
7.504                0.803774665     0.558430339
7.51                 0.805111164     0.556488361
7.516                0.806443337     0.554542202
7.522                0.807771176     0.552591864
7.528                0.809094669      0.55063735
7.534                0.810413806      0.54867866
7.54                 0.811728576     0.546715798
7.546                 0.81303897     0.544748764
7.552                0.814344976     0.542777559
7.558                0.815646584     0.540802187
7.564                0.816943784     0.538822648
7.57                 0.818236565     0.536838943
7.576                0.819524916     0.534851075
7.582                0.820808827     0.532859044
7.588                0.822088286     0.530862852
7.594                0.823363283     0.528862501
7.6                  0.824633808     0.526857991
7.606                0.825899848     0.524849325
7.612                0.827161395     0.522836502
7.618                0.828418435     0.520819524
7.624                0.829670959     0.518798393
7.63                 0.830918956      0.51677311
7.636                0.832162413     0.514743675
7.642                0.833401321     0.512710089
7.648                0.834635668     0.510672353
7.654                0.835865443     0.508630469
7.66                 0.837090634     0.506584437
7.666                 0.83831123     0.504534257
7.672                 0.83952722     0.502479931
7.678                0.840738593     0.500421459
7.684                0.841945336     0.498358842
7.69                 0.843147439     0.496292081
7.696                0.844344889     0.494221175
7.702                0.845537676     0.492146126
7.708                0.846725787     0.490066933
7.714                 0.84790921     0.487983597
7.72                 0.849087935     0.485896119
7.726                0.850261948     0.483804499
7.732                0.851431239     0.481708737
7.738                0.852595795     0.479608832
7.744                0.853755604     0.477504786
7.75                 0.854910654     0.475396598
7.756                0.856060932     0.473284268
7.762                0.857206427     0.471167797
7.768                0.858347127     0.469047183
7.774                0.859483019     0.466922427
7.78                  0.86061409     0.464793529
7.786                0.861740328     0.462660488
7.792                0.862861721     0.460523304
7.798                0.863978256     0.458381976
7.804                 0.86508992     0.456236505
7.81                 0.866196701     0.454086889
7.816                0.867298585     0.451933128
7.822                 0.86839556     0.449775222
7.828                0.869487613     0.447613169
7.834                0.870574731     0.445446969
7.84                 0.871656901      0.44327662
7.846                0.872734109     0.441102123
7.852                0.873806343     0.438923477
7.858                0.874873589     0.436740679
7.864                0.875935833     0.434553729
7.87                 0.876993062     0.432362627
7.876                0.878045263      0.43016737
7.882                0.879092422     0.427967957
7.888                0.880134524     0.425764388
7.894                0.881171558      0.42355666
7.9                  0.882203507     0.421344773
7.906                0.883230359     0.419128724
7.912                  0.8842521     0.416908512
7.918                0.885268714     0.414684136
7.924                0.886280189     0.412455594
7.93                 0.887286509     0.410222883
7.936                0.888287661     0.407986002
7.942                0.889283629      0.40574495
7.948                0.890274399     0.403499723
7.954                0.891259956     0.401250321
7.96                 0.892240286      0.39899674
7.966                0.893215374     0.396738979
7.972                0.894185204     0.394477034
7.978                0.895149762     0.392210905
7.984                0.896109032     0.389940589
7.99                 0.897062999     0.387666082
7.996                0.898011648     0.385387382
8.002                0.898954963     0.383104487
8.008                0.899892928     0.380817394
8.014                0.900825527     0.378526099
8.02                 0.901752746     0.376230601
8.026                0.902674567     0.373930896
8.032                0.903590975     0.371626981
8.038                0.904501954     0.369318853
8.044                0.905407487     0.367006508
8.05                 0.906307558     0.364689943
8.056                 0.90720215     0.362369156
8.062                0.908091247     0.360044142
8.068                0.908974832     0.357714898
8.074                0.909852887      0.35538142
8.08                 0.910725397     0.353043704
8.086                0.911592343     0.350701747
8.092                0.912453709     0.348355545
8.098                0.913309476     0.346005093
8.104                0.914159628     0.343650389
8.11                 0.915004147     0.341291426
8.116                0.915843015     0.338928202
8.122                0.916676213     0.336560712
8.128                0.917503724     0.334188952
8.134                 0.91832553     0.331812916
8.14                 0.919141612     0.329432601
8.146                0.919951952     0.327048001
8.152                 0.92075653     0.324659112
8.158                0.921555328     0.322265929
8.164                0.922348328     0.319868447
8.17                 0.923135509     0.317466661
8.176                0.923916853     0.315060565
8.182                 0.92469234     0.312650155
8.188                 0.92546195     0.310235424
8.194                0.926225664     0.307816368
8.2                  0.926983462     0.305392981
8.206                0.927735323     0.302965257
8.212                0.928481227     0.300533191
8.218                0.929221155     0.298096776
8.224                0.929955084     0.295656006
8.23                 0.930682995     0.293210876
8.236                0.931404865     0.290761379
8.242                0.932120675     0.288307509
8.248                0.932830403     0.285849259
8.254                0.933534027     0.283386624
8.26                 0.934231525     0.280919595
8.266                0.934922876     0.278448168
8.272                0.935608057     0.275972333
8.278                0.936287046     0.273492086
8.284                0.936959821     0.271007418
8.29                 0.937626358     0.268518323
8.296                0.938286635     0.266024793
8.302                0.938940629      0.26352682
8.308                0.939588316     0.261024398
8.314                0.940229672     0.258517518
8.32                 0.940864675     0.256006172
8.326                0.941493299     0.253490354
8.332                0.942115521     0.250970054
8.338                0.942731316     0.248445265
8.344                0.943340659     0.245915978
8.35                 0.943943526     0.243382186
8.356                0.944539891     0.240843878
8.362                0.945129729     0.238301048
8.368                0.945713014     0.235753685
8.374                 0.94628972     0.233201782
8.38                 0.946859822     0.230645328
8.386                0.947423292     0.228084316
8.392                0.947980104     0.225518735
8.398                0.948530231     0.222948577
8.404                0.949073646     0.220373831
8.41                 0.949610322     0.217794488
8.416                 0.95014023     0.215210538
8.422                0.950663343     0.212621971
8.428                0.951179632     0.210028777
8.434                0.951689069     0.207430946
8.44                 0.952191624     0.204828468
8.446                0.952687269     0.202221331
8.452                0.953175975     0.199609526
8.458                0.953657711     0.196993041
8.464                0.954132447     0.194371865
8.47                 0.954600153     0.191745988
8.476                0.955060798     0.189115398
8.482                0.955514351     0.186480083
8.488                0.955960781     0.183840033
8.494                0.956400057     0.181195234
8.5                  0.956832145     0.178545677
8.506                0.957257014     0.175891347
8.512                0.957674631     0.173232235
8.518                0.958084963     0.170568326
8.524                0.958487976     0.167899608
8.53                 0.958883637      0.16522607
8.536                0.959271911     0.162547697
8.542                0.959652765     0.159864478
8.548                0.960026162     0.157176398
8.554                0.960392069     0.154483445
8.56                 0.960750449     0.151785605
8.566                0.961101265     0.149082865
8.572                0.961444483      0.14637521
8.578                0.961780064     0.143662627
8.584                0.962107971     0.140945102
8.59                 0.962428168      0.13822262
8.596                0.962740614     0.135495167
8.602                0.963045273     0.132762727
8.608                0.963342105     0.130025287
8.614                0.963631071     0.127282832
8.62                  0.96391213     0.124535345
8.626                0.964185242     0.121782812
8.632                0.964450367     0.119025217
8.638                0.964707463     0.116262544
8.644                0.964956488     0.113494778
8.65                 0.965197401     0.110721902
8.656                0.965430158       0.1079439
8.662                0.965654715     0.105160756
8.668                 0.96587103     0.102372452
8.674                0.966079058    0.0995789717
8.68                 0.966278754    0.0967802985
8.686                0.966470072    0.0939764148
8.692                0.966652967    0.0911673032
8.698                0.966827393     0.088352946
8.704                0.966993302    0.0855333252
8.71                 0.967150646     0.082708423
8.716                0.967299377    0.0798782209
8.722                0.967439448    0.0770427005
8.728                0.967570807    0.0742018431
8.734                0.967693406    0.0713556299
8.74                 0.967807193    0.0685040417
8.746                0.967912117    0.0656470593
8.752                0.968008127    0.0627846631
8.758                 0.96809517    0.0599168335
8.764                0.968173193    0.0570435505
8.77                 0.968242141    0.0541647939
8.776                0.968301961    0.0512805434
8.782                0.968352597    0.0483907785
8.788                0.968393993    0.0454954782
8.794                0.968426092    0.0425946217
8.8                  0.968448838    0.0396881877
8.806                0.968462171    0.0367761546
8.812                0.968466033    0.0338585009
8.818                0.968460365    0.0309352047
8.824                0.968445105    0.0280062438
8.83                 0.968420193    0.0250715958
8.836                0.968385567    0.0221312382
8.842                0.968341164    0.0191851483
8.848                 0.96828692    0.0162333029
8.854                0.968222771    0.0132756787
8.86                  0.96814865    0.0103122524
8.866                0.968064493   0.00734300013
8.872                0.967970232   0.00436789799
8.878                0.967865798   0.00138692177
8.884                0.967751124  -0.00159995295
8.89                 0.967626138  -0.00459275082
8.896                0.967490771  -0.00759149675
8.902                0.967344949   -0.0105962159
8.908                0.967188602   -0.0136069335
8.914                0.967021654   -0.0166236753
8.92                  0.96684403   -0.0196464671
8.926                0.966655656    -0.022675335
8.932                0.966456454   -0.0257103053
8.938                0.966246346   -0.0287514045
8.944                0.966025254   -0.0317986595
8.95                 0.965793096   -0.0348520972
8.956                0.965549791    -0.037911745
8.962                0.965295258   -0.0409776303
8.968                0.965029412    -0.044049781
8.974                0.964752169   -0.0471282249
8.98                 0.964463443   -0.0502129903
8.986                0.964163146   -0.0533041058
8.992                 0.96385119   -0.0564015999
8.998                0.963527485   -0.0595055016
9.004                 0.96319194   -0.0626158401
9.01                 0.962844462   -0.0657326448
9.016                0.962484958   -0.0688559454
9.022                0.962113333   -0.0719857717
9.028                0.961729491   -0.0751221538
9.034                0.961333332    -0.078265122
9.04                 0.960924758    -0.081414707
9.046                0.960503668   -0.0845709394
9.052                 0.96006996   -0.0877338504
9.058                0.959623529   -0.0909034712
9.064                0.959164271   -0.0940798332
9.07                 0.958692078   -0.0972629681
9.076                0.958206841    -0.100452908
9.082                0.957708451    -0.103649684
9.088                0.957196795     -0.10685333
9.094                0.956671759    -0.110063878
9.1                  0.956133229     -0.11328136
9.106                0.955581087    -0.116505809
9.112                0.955015214     -0.11973726
9.118                0.954435489    -0.122975743
9.124                 0.95384179    -0.126221295
9.13                 0.953233992    -0.129473947
9.136                0.952611968    -0.132733734
9.142                 0.95197559     -0.13600069
9.148                0.951324728     -0.13927485
9.154                0.950659248    -0.142556247
9.16                 0.949979017    -0.145844915
9.166                0.949283898    -0.149140891
9.172                0.948573751    -0.152444208
9.178                0.947848435    -0.155754902
9.184                0.947107807    -0.159073007
9.19                 0.946351721    -0.162398559
9.196                0.945580029    -0.165731593
9.202                0.944792581    -0.169072145
9.208                0.943989223    -0.172420249
9.214                  0.9431698    -0.175775942
9.22                 0.942334155    -0.179139259
9.226                0.941482127    -0.182510236
9.232                0.940613552    -0.185888909
9.238                0.939728265    -0.189275313
9.244                0.938826098    -0.192669484
9.25                 0.937906878    -0.196071458
9.256                0.936970432    -0.199481271
9.262                0.936016582    -0.202898959
9.268                0.935045149    -0.206324557
9.274                0.934055949    -0.209758102
9.28                 0.933048796    -0.213199628
9.286                0.932023501    -0.216649171
9.292                0.930979872    -0.220106768
9.298                0.929917711    -0.223572452
9.304                0.928836821     -0.22704626
9.31                 0.927736999    -0.230528226
9.316                0.926618039    -0.234018386
9.322                0.925479731    -0.237516773
9.328                0.924321861    -0.241023423
9.334                0.923144214    -0.244538369
9.34                 0.921946569    -0.248061645
9.346                  0.9207287    -0.251593285
9.352                 0.91949038    -0.255133322
9.358                0.918231376    -0.258681789
9.364                0.916951451    -0.262238718
9.37                 0.915650366    -0.265804142
9.376                0.914327874    -0.269378091
9.382                0.912983728    -0.272960598
9.388                0.911617672    -0.276551691
9.394                 0.91022945    -0.280151402
9.4                  0.908818797    -0.283759759
9.406                0.907385447    -0.287376791
9.412                0.905929127    -0.291002527
9.418                 0.90444956    -0.294636992
9.424                0.902946463    -0.298280214
9.43                 0.901419549    -0.301932218
9.436                0.899868526    -0.305593029
9.442                0.898293094    -0.309262669
9.448                0.896692952    -0.312941163
9.454                0.895067789     -0.31662853
9.46                 0.893417292    -0.320324793
9.466                0.891741138    -0.324029969
9.472                0.890039003    -0.327744077
9.478                0.888310553    -0.331467133
9.484                 0.88655545    -0.335199153
9.49                 0.884773348    -0.338940151
9.496                0.882963896    -0.342690137
9.502                0.881126735    -0.346449123
9.508                0.879261502    -0.350217118
9.514                0.877367824    -0.353994128
9.52                 0.875445322    -0.357780158
9.526                 0.87349361    -0.361575212
9.532                0.871512295    -0.365379289
9.538                0.869500977    -0.369192389
9.544                0.867459246    -0.373014508
9.55                 0.865386686    -0.376845639
9.556                0.863282873    -0.380685774
9.562                0.861147375    -0.384534902
9.568                 0.85897975    -0.388393007
9.574                0.856779549    -0.392260073
9.58                 0.854546315     -0.39613608
9.586                 0.85227958    -0.400021003
9.592                0.849978868    -0.403914815
9.598                0.847643693    -0.407817486
9.604                0.845273561    -0.411728981
9.61                 0.842867968    -0.415649262
9.616                0.840426398    -0.419578287
9.622                0.837948328    -0.423516008
9.628                0.835433222    -0.427462375
9.634                0.832880534    -0.431417332
9.64                 0.830289709    -0.435380817
9.646                 0.82766018    -0.439352765
9.652                0.824991367    -0.443333105
9.658                 0.82228268    -0.447321759
9.664                0.819533518    -0.451318644
9.67                 0.816743267    -0.455323672
9.676                0.813911301    -0.459336748
9.682                 0.81103698    -0.463357768
9.688                0.808119655    -0.467386624
9.694                0.805158659      -0.4714232
9.7                  0.802153316    -0.475467371
9.706                0.799102934    -0.479519005
9.712                0.796006808    -0.483577963
9.718                0.792864218    -0.487644094
9.724                 0.78967443    -0.491717242
9.73                 0.786436695    -0.495797237
9.736                0.783150249    -0.499883902
9.742                0.779814313     -0.50397705
9.748                0.776428092    -0.508076482
9.754                0.772990775    -0.512181987
9.76                 0.769501534    -0.516293344
9.766                0.765959525    -0.520410319
9.772                0.762363887    -0.524532664
9.778                0.758713742    -0.528660119
9.784                0.755008192     -0.53279241
9.79                 0.751246324    -0.536929249
9.796                0.747427205    -0.541070329
9.802                0.743549883    -0.545215333
9.808                0.739613388    -0.549363922
9.814                 0.73561673    -0.553515743
9.82                 0.731558899    -0.557670424
9.826                0.727438864    -0.561827574
9.832                0.723255576    -0.565986782
9.838                0.719007963    -0.570147617
9.844                0.714694932    -0.574309626
9.85                 0.710315369    -0.578472336
9.856                0.705868138    -0.582635246
9.862                 0.70135208    -0.586797836
9.868                0.696766015    -0.590959556
9.874                0.692108737    -0.595119833
9.88                  0.68737902    -0.599278065
9.886                0.682575613     -0.60343362
9.892                 0.67769724    -0.607585839
9.898                0.672742602    -0.611734028
9.904                0.667710376    -0.615877464
9.91                 0.662599212    -0.620015386
9.916                0.657407737    -0.624147001
9.922                0.652134551    -0.628271477
9.928                 0.64677823    -0.632387944
9.934                0.641337322    -0.636495492
9.94                 0.635810352    -0.640593167
9.946                0.630195815    -0.644679973
9.952                0.624492184    -0.648754869
9.958                0.618697901    -0.652816764
9.964                0.612811385    -0.656864519
9.97                 0.606831028    -0.660896944
9.976                0.600755193    -0.664912792
9.982                 0.59458222    -0.668910763
9.988                0.588310419    -0.672889497
9.994                0.581938078    -0.676847572
10                   0.575463455    -0.680783505
10.006               0.568884786    -0.684695744
10.012               0.562200278    -0.688582669
10.018               0.555408115    -0.692442588
10.024               0.548506459    -0.696273735
10.03                0.541493444    -0.700074266
10.036               0.534367184    -0.703842254
10.042               0.527125769    -0.707575688
10.048               0.519767269    -0.711272472
10.054               0.512289735    -0.714930414
10.06                0.504691196    -0.718547231
10.066               0.496969666    -0.722120537
10.072               0.489123142    -0.725647847
10.078               0.481149607    -0.729126566
10.084               0.473047031    -0.732553989
10.09                0.464813373    -0.735927295
10.096               0.456446587    -0.739243543
10.102               0.447944617    -0.742499669
10.108               0.439305408    -0.745692476
10.114               0.430526902    -0.748818636
10.12                0.421607046     -0.75187468
10.126               0.412543793    -0.754856995
10.132               0.403335109    -0.757761819
10.138               0.393978973    -0.760585233
10.144               0.384473384    -0.763323158
10.15                0.374816366    -0.765971351
10.156               0.365005973    -0.768525394
10.162               0.355040295    -0.770980694
10.168               0.344917464    -0.773332472
10.174                0.33463566    -0.775575761
10.18                 0.32419312    -0.777705397
10.186               0.313588146    -0.779716018
10.192               0.302819111    -0.781602051
10.198               0.291884469     -0.78335771
10.204               0.280782767    -0.784976992
10.21                0.269512651    -0.786453666
10.216               0.258072882    -0.787781271
10.222               0.246462343     -0.78895311
10.228               0.234680055    -0.789962243
10.234                0.22272519    -0.790801483
10.24                0.210597082    -0.791463392
10.246               0.198295248    -0.791940272
10.252               0.185819397    -0.792224168
10.258               0.173169454    -0.792306858
10.264               0.160345573    -0.792179853
10.27                0.147348156    -0.791834394
10.276               0.134177878    -0.791261448
10.282               0.120835704    -0.790451712
10.288               0.107322909    -0.789395608
10.294              0.0936411074    -0.788083286
10.3                0.0797922729    -0.786504625
10.306               0.065778765    -0.784649238
10.312               0.051603356    -0.782506477
10.318              0.0372692579    -0.780065435
10.324              0.0227801515    -0.777314961
10.33              0.00814021571    -0.774243661
10.336            -0.00664584159    -0.770839919
10.342             -0.0215727525    -0.767091905
10.348             -0.0366346566    -0.762987592
10.354             -0.0518250683    -0.758514777
10.36              -0.0671368432    -0.753661101
10.366             -0.0825621447    -0.748414073
10.372             -0.0980924091    -0.742761102
10.378              -0.113718312     -0.73668952
10.384              -0.129429736    -0.730186623
10.39               -0.145215733    -0.723239709
10.396              -0.161064496    -0.715836116
10.402              -0.176963325    -0.707963269
10.408              -0.192898598    -0.699608734
10.414              -0.208855739    -0.690760268
10.42               -0.224819199    -0.681405879
10.426              -0.240772424    -0.671533889
10.432              -0.256697839    -0.661133004
10.438              -0.272576831    -0.650192382
10.444              -0.288389737    -0.638701712
10.45               -0.304115832    -0.626651295
10.456              -0.319733331    -0.614032127
10.462              -0.335219392     -0.60083599
10.468              -0.350550122     -0.58705554
10.474              -0.365700598    -0.572684409
10.48               -0.380644894    -0.557717295
10.486              -0.395356109    -0.542150068
10.492              -0.409806413    -0.525979869
10.498              -0.423967101    -0.509205213
10.504              -0.437808651     -0.49182609
10.51                 -0.4513008    -0.473844064
10.516              -0.464412628    -0.455262378
10.522              -0.477112649    -0.436086039
10.528              -0.489368923     -0.41632192
10.534              -0.501149168    -0.395978834