! TOUCHSTONE file generated by CST MICROWAVE STUDIO
! Date and time: Wed Sep 25 17:16:45 2024
! Project name: metal.cst
! Parameters = {A=1.40924; AB_sqInv=0.503371; B=0.025494; C0=2.097; Cj=0.183267; Cp=0.075; Ct=0.258061; ImZ=-61.6735; L=10; L1=0.3; L_back=16.1559; Lp=0.35; Lpad=0.75; M=1.199; R=5.41; R_cav=0.5; R_sogl=4.36377; ReZ=2.72324; Rt=2.72324; V=19.8; Vj=2.984; W=10; W1=-0.15; W2=-0.15; Wcoop=3.29; Wgap=1; Wline=1.42; Wpad=0.475; Wpadgap=0.35; Xpad1=1.6225; Xpad2=0.7975; Xpad3=1.6225; Xpad4=0.7975; Xvar_centre=1.21; angle_sogl=144.599; f=0.01; f0=11; fmax=11.25; fmin=10.75; h=0.8; phase=0; phi=0; sogl_proc=0.641844; th=0.035; theta=0}
! Header version: 2024
! Port assignment regex: !\s*Touchstone port\s*([0-9]+)\s*=\s*(CST MWS port|CST DES external port|CST DES block port)\s*(.+)\s* \(\"(.*)\"\)(\s*mode\s*([0-9]+))?.*
! Touchstone port assignment:
! Touchstone port 1 = CST MWS port Zmax ("") mode 1
! S-Parameters are not renormalized. Unphysical impedance of 50 will be written to the file.
# GHz S RI R 50
7                    0.588679725     0.808366366
7.006                0.590203043     0.807256076
7.012                0.591724261       0.8061429
7.018                0.593243374     0.805026844
7.024                0.594760376     0.803907911
7.03                 0.596275262     0.802786104
7.036                0.597788027     0.801661429
7.042                0.599298664      0.80053389
7.048                 0.60080717      0.79940349
7.054                0.602313537     0.798270234
7.06                 0.603817762     0.797134125
7.066                0.605319838     0.795995169
7.072                 0.60681976     0.794853369
7.078                0.608317523      0.79370873
7.084                0.609813122     0.792561255
7.09                  0.61130655     0.791410949
7.096                0.612797804     0.790257816
7.102                0.614286876      0.78910186
7.108                0.615773763     0.787943086
7.114                0.617258459     0.786781498
7.12                 0.618740959       0.7856171
7.126                0.620221256     0.784449896
7.132                0.621699347     0.783279891
7.138                0.623175225     0.782107088
7.144                0.624648886     0.780931493
7.15                 0.626120324      0.77975311
7.156                0.627589534     0.778571942
7.162                 0.62905651     0.777387994
7.168                0.630521249     0.776201271
7.174                0.631983743     0.775011776
7.18                 0.633443988     0.773819515
7.186                 0.63490198     0.772624491
7.192                0.636357711     0.771426709
7.198                0.637811179     0.770226174
7.204                0.639262376     0.769022889
7.21                 0.640711299     0.767816858
7.216                0.642157942     0.766608088
7.222                0.643602299     0.765396581
7.228                0.645044367     0.764182343
7.234                0.646484138     0.762965377
7.24                  0.64792161     0.761745688
7.246                0.649356775     0.760523281
7.252                 0.65078963      0.75929816
7.258                0.652220168      0.75807033
7.264                0.653648386     0.756839794
7.27                 0.655074278     0.755606558
7.276                0.656497838     0.754370626
7.282                0.657919063     0.753132003
7.288                0.659337946     0.751890692
7.294                0.660754483     0.750646699
7.3                  0.662168668     0.749400028
7.306                0.663580497     0.748150683
7.312                0.664989965     0.746898669
7.318                0.666397066     0.745643992
7.324                0.667801796     0.744386654
7.33                 0.669204149     0.743126661
7.336                0.670604121     0.741864017
7.342                0.672001707     0.740598728
7.348                0.673396902     0.739330797
7.354                  0.6747897     0.738060229
7.36                 0.676180097     0.736787029
7.366                0.677568088     0.735511201
7.372                0.678953667      0.73423275
7.378                0.680336831     0.732951681
7.384                0.681717574     0.731667998
7.39                 0.683095891     0.730381706
7.396                0.684471777      0.72909281
7.402                0.685845228     0.727801314
7.408                0.687216239     0.726507223
7.414                0.688584804     0.725210542
7.42                 0.689950918     0.723911275
7.426                0.691314578     0.722609427
7.432                0.692675778     0.721305002
7.438                0.694034513     0.719998007
7.444                0.695390779     0.718688444
7.45                 0.696744571      0.71737632
7.456                0.698095883     0.716061638
7.462                0.699444711     0.714744404
7.468                0.700791051     0.713424622
7.474                0.702134897     0.712102297
7.48                 0.703476245     0.710777434
7.486                 0.70481509     0.709450037
7.492                0.706151428     0.708120112
7.498                0.707485252     0.706787663
7.504                 0.70881656     0.705452695
7.51                 0.710145346     0.704115213
7.516                0.711471605     0.702775221
7.522                0.712795333     0.701432725
7.528                0.714116524     0.700087729
7.534                0.715435175     0.698740239
7.54                 0.716751281     0.697390258
7.546                0.718064837     0.696037793
7.552                0.719375838     0.694682847
7.558                0.720684279     0.693325426
7.564                0.721990157     0.691965534
7.57                 0.723293466     0.690603177
7.576                0.724594202      0.68923836
7.582                 0.72589236     0.687871087
7.588                0.727187936     0.686501363
7.594                0.728480924     0.685129193
7.6                  0.729771322     0.683754582
7.606                0.731059123     0.682377536
7.612                0.732344323     0.680998058
7.618                0.733626918     0.679616155
7.624                0.734906903      0.67823183
7.63                 0.736184274      0.67684509
7.636                0.737459026     0.675455938
7.642                0.738731155      0.67406438
7.648                0.740000656     0.672670422
7.654                0.741267525     0.671274067
7.66                 0.742531756     0.669875321
7.666                0.743793347     0.668474189
7.672                0.745052292     0.667070677
7.678                0.746308586     0.665664788
7.684                0.747562226     0.664256529
7.69                 0.748813207     0.662845904
7.696                0.750061524     0.661432918
7.702                0.751307173     0.660017576
7.708                 0.75255015     0.658599884
7.714                 0.75379045     0.657179847
7.72                 0.755028069     0.655757469
7.726                0.756263003     0.654332756
7.732                0.757495246     0.652905713
7.738                0.758724796     0.651476344
7.744                0.759951647     0.650044656
7.75                 0.761175794     0.648610653
7.756                0.762397235     0.647174341
7.762                0.763615964     0.645735724
7.768                0.764831977     0.644294808
7.774                0.766045271     0.642851597
7.78                 0.767255839     0.641406098
7.786                0.768463679     0.639958315
7.792                0.769668786     0.638508253
7.798                0.770871155     0.637055918
7.804                0.772070783     0.635601315
7.81                 0.773267665     0.634144448
7.816                0.774461798     0.632685324
7.822                0.775653176     0.631223948
7.828                0.776841795     0.629760324
7.834                0.778027652     0.628294458
7.84                 0.779210742     0.626826355
7.846                0.780391061     0.625356021
7.852                0.781568605      0.62388346
7.858                 0.78274337     0.622408679
7.864                0.783915351     0.620931681
7.87                 0.785084544     0.619452474
7.876                0.786250946     0.617971061
7.882                0.787414551     0.616487448
7.888                0.788575357     0.615001641
7.894                0.789733359     0.613513644
7.9                  0.790888552     0.612023463
7.906                0.792040933     0.610531104
7.912                0.793190498     0.609036572
7.918                0.794337242     0.607539872
7.924                0.795481162     0.606041009
7.93                 0.796622253     0.604539989
7.936                0.797760512     0.603036817
7.942                0.798895934     0.601531498
7.948                0.800028516     0.600024039
7.954                0.801158253     0.598514443
7.96                 0.802285141     0.597002718
7.966                0.803409177     0.595488867
7.972                0.804530356     0.593972897
7.978                0.805648675     0.592454813
7.984                0.806764129      0.59093462
7.99                 0.807876715     0.589412324
7.996                0.808986428      0.58788793
8.002                0.810093266     0.586361443
8.008                0.811197223      0.58483287
8.014                0.812298296     0.583302215
8.02                 0.813396481     0.581769484
8.026                0.814491774     0.580234683
8.032                0.815584171     0.578697816
8.038                0.816673669      0.57715889
8.044                0.817760264      0.57561791
8.05                 0.818843951     0.574074881
8.056                0.819924727     0.572529809
8.062                0.821002589     0.570982699
8.068                0.822077531     0.569433557
8.074                0.823149551     0.567882389
8.08                 0.824218645     0.566329199
8.086                0.825284808     0.564773994
8.092                0.826348038     0.563216779
8.098                 0.82740833      0.56165756
8.104                0.828465681     0.560096341
8.11                 0.829520086      0.55853313
8.116                0.830571543      0.55696793
8.122                0.831620047     0.555400749
8.128                0.832665595      0.55383159
8.134                0.833708183     0.552260461
8.14                 0.834747807     0.550687367
8.146                0.835784464     0.549112312
8.152                 0.83681815     0.547535303
8.158                0.837848861     0.545956346
8.164                0.838876594     0.544375446
8.17                 0.839901346     0.542792608
8.176                0.840923111     0.541207839
8.182                0.841941888     0.539621143
8.188                0.842957671     0.538032527
8.194                0.843970459     0.536441996
8.2                  0.844980246     0.534849556
8.206                 0.84598703     0.533255213
8.212                0.846990807     0.531658972
8.218                0.847991573     0.530060839
8.224                0.848989325     0.528460819
8.23                 0.849984059     0.526858918
8.236                0.850975772     0.525255143
8.242                0.851964461     0.523649498
8.248                0.852950121     0.522041989
8.254                0.853932749     0.520432623
8.26                 0.854912343     0.518821404
8.266                0.855888897     0.517208339
8.272                 0.85686241     0.515593433
8.278                0.857832877     0.513976692
8.284                0.858800295     0.512358122
8.29                 0.859764661     0.510737728
8.296                0.860725971     0.509115516
8.302                0.861684221     0.507491493
8.308                0.862639409     0.505865663
8.314                0.863591531     0.504238033
8.32                 0.864540584     0.502608608
8.326                0.865486564     0.500977394
8.332                0.866429468     0.499344397
8.338                0.867369292     0.497709623
8.344                0.868306034     0.496073077
8.35                  0.86923969     0.494434765
8.356                0.870170256     0.492794694
8.362                 0.87109773     0.491152869
8.368                0.872022107     0.489509295
8.374                0.872943386     0.487863979
8.38                 0.873861562     0.486216927
8.386                0.874776632     0.484568144
8.392                0.875688594     0.482917635
8.398                0.876597443     0.481265408
8.404                0.877503177     0.479611468
8.41                 0.878405792     0.477955821
8.416                0.879305285     0.476298472
8.422                0.880201654     0.474639428
8.428                0.881094894     0.472978694
8.434                0.881985002     0.471316276
8.44                 0.882871977      0.46965218
8.446                0.883755813     0.467986413
8.452                0.884636509     0.466318979
8.458                0.885514061     0.464649886
8.464                0.886388466     0.462979138
8.47                 0.887259721     0.461306742
8.476                0.888127822     0.459632704
8.482                0.888992767     0.457957029
8.488                0.889854553     0.456279724
8.494                0.890713177     0.454600794
8.5                  0.891568635     0.452920245
8.506                0.892420924     0.451238085
8.512                0.893270042     0.449554317
8.518                0.894115986     0.447868949
8.524                0.894958752     0.446181986
8.53                 0.895798337     0.444493434
8.536                0.896634739       0.4428033
8.542                0.897467955     0.441111589
8.548                0.898297981     0.439418307
8.554                0.899124815     0.437723461
8.56                 0.899948453     0.436027055
8.566                0.900768893     0.434329098
8.572                0.901586132     0.432629593
8.578                0.902400167     0.430928547
8.584                0.903210995     0.429225967
8.59                 0.904018614     0.427521859
8.596                0.904823019     0.425816228
8.602                0.905624209      0.42410908
8.608                0.906422181     0.422400422
8.614                0.907216931     0.420690259
8.62                 0.908008458     0.418978598
8.626                0.908796757     0.417265445
8.632                0.909581827     0.415550805
8.638                0.910363664     0.413834685
8.644                0.911142267     0.412117091
8.65                 0.911917631     0.410398029
8.656                0.912689754     0.408677505
8.662                0.913458634     0.406955526
8.668                0.914224268     0.405232096
8.674                0.914986652     0.403507223
8.68                 0.915745785     0.401780913
8.686                0.916501664     0.400053171
8.692                0.917254286     0.398324004
8.698                0.918003648     0.396593417
8.704                0.918749747     0.394861418
8.71                 0.919492581     0.393128011
8.716                0.920232148     0.391393204
8.722                0.920968444     0.389657003
8.728                0.921701468     0.387919412
8.734                0.922431216      0.38618044
8.74                 0.923157685     0.384440091
8.746                0.923880874     0.382698373
8.752                 0.92460078      0.38095529
8.758                0.925317399      0.37921085
8.764                 0.92603073     0.377465058
8.77                 0.926740771     0.375717921
8.776                0.927447517     0.373969445
8.782                0.928150968     0.372219636
8.788                 0.92885112       0.3704685
8.794                0.929547971     0.368716044
8.8                  0.930241518     0.366962273
8.806                 0.93093176     0.365207194
8.812                0.931618693     0.363450813
8.818                0.932302315     0.361693137
8.824                0.932982624     0.359934171
8.83                 0.933659617     0.358173922
8.836                0.934333291     0.356412395
8.842                0.935003645     0.354649598
8.848                0.935670676     0.352885537
8.854                0.936334382     0.351120217
8.86                  0.93699476     0.349353645
8.866                0.937651808     0.347585827
8.872                0.938305523      0.34581677
8.878                0.938955904     0.344046479
8.884                0.939602947     0.342274961
8.89                 0.940246651     0.340502223
8.896                0.940887013      0.33872827
8.902                0.941524032     0.336953109
8.908                0.942157704     0.335176746
8.914                0.942788027     0.333399187
8.92                    0.943415     0.331620439
8.926                0.944038619     0.329840507
8.932                0.944658883       0.3280594
8.938                 0.94527579     0.326277121
8.944                0.945889337     0.324493679
8.95                 0.946499522     0.322709078
8.956                0.947106343     0.320923326
8.962                0.947709797     0.319136429
8.968                0.948309883     0.317348393
8.974                0.948906599     0.315559225
8.98                 0.949499942      0.31376893
8.986                0.950089909     0.311977515
8.992                  0.9506765     0.310184987
8.998                0.951259712     0.308391351
9.004                0.951839543     0.306596615
9.01                  0.95241599     0.304800784
9.016                0.952989053     0.303003865
9.022                0.953558727     0.301205864
9.028                0.954125013     0.299406788
9.034                0.954687907     0.297606643
9.04                 0.955247407     0.295805435
9.046                0.955803512      0.29400317
9.052                0.956356219     0.292199856
9.058                0.956905527     0.290395498
9.064                0.957451434     0.288590103
9.07                 0.957993937     0.286783677
9.076                0.958533035     0.284976226
9.082                0.959068725     0.283167758
9.088                0.959601006     0.281358278
9.094                0.960129876     0.279547793
9.1                  0.960655334     0.277736309
9.106                0.961177376     0.275923832
9.112                0.961696001      0.27411037
9.118                0.962211208     0.272295928
9.124                0.962722994     0.270480512
9.13                 0.963231357      0.26866413
9.136                0.963736297     0.266846788
9.142                 0.96423781     0.265028492
9.148                0.964735896     0.263209248
9.154                0.965230552     0.261389064
9.16                 0.965721777     0.259567945
9.166                0.966209568     0.257745898
9.172                0.966693925     0.255922929
9.178                0.967174844     0.254099044
9.184                0.967652326     0.252274251
9.19                 0.968126367     0.250448556
9.196                0.968596966     0.248621965
9.202                0.969064122     0.246794485
9.208                0.969527832     0.244966121
9.214                0.969988095     0.243136881
9.22                  0.97044491     0.241306771
9.226                0.970898275     0.239475798
9.232                0.971348188     0.237643968
9.238                0.971794647     0.235811287
9.244                0.972237651     0.233977762
9.25                 0.972677198     0.232143399
9.256                0.973113287     0.230308205
9.262                0.973545916     0.228472187
9.268                0.973975083     0.226635351
9.274                0.974400788     0.224797703
9.28                 0.974823027      0.22295925
9.286                0.975241801     0.221119998
9.292                0.975657107     0.219279954
9.298                0.976068944     0.217439125
9.304                 0.97647731     0.215597517
9.31                 0.976882204     0.213755136
9.316                0.977283624     0.211911989
9.322                 0.97768157     0.210068083
9.328                0.978076038     0.208223423
9.334                0.978467029     0.206378018
9.34                 0.978854541     0.204531872
9.346                0.979238571     0.202684993
9.352                 0.97961912     0.200837387
9.358                0.979996185     0.198989061
9.364                0.980369764     0.197140021
9.37                 0.980739858     0.195290274
9.376                0.981106464     0.193439826
9.382                0.981469581     0.191588685
9.388                0.981829207     0.189736855
9.394                0.982185342     0.187884345
9.4                  0.982537984      0.18603116
9.406                0.982887131     0.184177307
9.412                0.983232783     0.182322793
9.418                0.983574939     0.180467624
9.424                0.983913596     0.178611807
9.43                 0.984248754     0.176755349
9.436                0.984580411     0.174898255
9.442                0.984908567     0.173040533
9.448                0.985233219     0.171182189
9.454                0.985554368      0.16932323
9.46                 0.985872011     0.167463662
9.466                0.986186148     0.165603491
9.472                0.986496777     0.163742726
9.478                0.986803897     0.161881371
9.484                0.987107507     0.160019434
9.49                 0.987407606     0.158156921
9.496                0.987704193     0.156293839
9.502                0.987997267     0.154430194
9.508                0.988286827     0.152565993
9.514                0.988572871     0.150701243
9.52                 0.988855398      0.14883595
9.526                0.989134409     0.146970121
9.532                  0.9894099     0.145103762
9.538                0.989681872      0.14323688
9.544                0.989950323     0.141369482
9.55                 0.990215253     0.139501574
9.556                0.990476661     0.137633164
9.562                0.990734544     0.135764256
9.568                0.990988903     0.133894859
9.574                0.991239737     0.132024978
9.58                 0.991487045     0.130154621
9.586                0.991730825     0.128283793
9.592                0.991971077     0.126412502
9.598                0.992207799     0.124540755
9.604                0.992440992     0.122668557
9.61                 0.992670654     0.120795916
9.616                0.992896784     0.118922838
9.622                0.993119382      0.11704933
9.628                0.993338446     0.115175398
9.634                0.993553976     0.113301049
9.64                 0.993765971     0.111426289
9.646                 0.99397443     0.109551126
9.652                0.994179352     0.107675566
9.658                0.994380737     0.105799616
9.664                0.994578584     0.103923282
9.67                 0.994772892      0.10204657
9.676                 0.99496366     0.100169489
9.682                0.995150887    0.0982920431
9.688                0.995334574    0.0964142404
9.694                0.995514719    0.0945360871
9.7                  0.995691321    0.0926575901
9.706                 0.99586438    0.0907787558
9.712                0.996033896     0.088899591
9.718                0.996199866    0.0870201023
9.724                0.996362292    0.0851402964
9.73                 0.996521172      0.08326018
9.736                0.996676505    0.0813797596
9.742                0.996828292     0.079499042
9.748                0.996976531    0.0776180339
9.754                0.997121222    0.0757367419
9.76                 0.997262364    0.0738551726
9.766                0.997399957    0.0719733328
9.772                   0.997534    0.0700912292
9.778                0.997664492    0.0682088683
9.784                0.997791434    0.0663262568
9.79                 0.997914825    0.0644434015
9.796                0.998034664     0.062560309
9.802                 0.99815095     0.060676986
9.808                0.998263684    0.0587934391
9.814                0.998372864    0.0569096751
9.82                 0.998478491    0.0550257005
9.826                0.998580563    0.0531415222
9.832                0.998679081    0.0512571468
9.838                0.998774045    0.0493725809
9.844                0.998865453    0.0474878312
9.85                 0.998953305    0.0456029045
9.856                0.999037601    0.0437178073
9.862                0.999118341    0.0418325465
9.868                0.999195524    0.0399471286
9.874                 0.99926915    0.0380615604
9.88                 0.999339218    0.0361758485
9.886                0.999405729    0.0342899997
9.892                0.999468682    0.0324040206
9.898                0.999528077    0.0305179179
9.904                0.999583913    0.0286316983
9.91                  0.99963619    0.0267453685
9.916                0.999684909    0.0248589352
9.922                0.999730068     0.022972405
9.928                0.999771667    0.0210857847
9.934                0.999809708     0.019199081
9.94                 0.999844188    0.0173123005
9.946                0.999875108      0.01542545
9.952                0.999902468     0.013538536
9.958                0.999926267    0.0116515655
9.964                0.999946507   0.00976454492
9.97                 0.999963185   0.00787748109
9.976                0.999976303   0.00599038067
9.982                 0.99998586   0.00410325037
9.988                0.999991856   0.00221609687
9.994                0.999994291  0.000328926867
10                   0.999993165  -0.00155825293
10.006               0.999988478  -0.00344543584
10.012               0.999980229  -0.00533261515
10.018                0.99996842  -0.00721978418
10.024               0.999953049  -0.00910693622
10.03                0.999934117   -0.0109940646
10.036               0.999911624   -0.0128811625
10.042                0.99988557   -0.0147682234
10.048               0.999855955   -0.0166552406
10.054               0.999822778   -0.0185422072
10.06                0.999786041   -0.0204291167
10.066               0.999745743   -0.0223159623
10.072               0.999701883   -0.0242027373
10.078               0.999654463   -0.0260894351
10.084               0.999603483   -0.0279760489
10.09                0.999548941   -0.0298625721
10.096                0.99949084   -0.0317489979
10.102               0.999429178   -0.0336353196
10.108               0.999363956   -0.0355215306
10.114               0.999295174   -0.0374076242
10.12                0.999222832   -0.0392935936
10.126               0.999146931   -0.0411794322
10.132               0.999067471   -0.0430651332
10.138               0.998984451     -0.04495069
10.144               0.998897873   -0.0468360959
10.15                0.998807736   -0.0487213441
10.156                0.99871404    -0.050606428
10.162               0.998616787    -0.052491341
10.168               0.998515975   -0.0543760762
10.174               0.998411607    -0.056260627
10.18                0.998303681   -0.0581449867
10.186               0.998192198   -0.0600291486
10.192               0.998077159   -0.0619131061
10.198               0.997958563   -0.0637968524
10.204               0.997836412   -0.0656803808
10.21                0.997710705   -0.0675636847
10.216               0.997581443   -0.0694467573
10.222               0.997448627    -0.071329592
10.228               0.997312256   -0.0732121821
10.234               0.997172331   -0.0750945208
10.24                0.997028853   -0.0769766016
10.246               0.996881823   -0.0788584177
10.252               0.996731239   -0.0807399624
10.258               0.996577104   -0.0826212291
10.264               0.996419417    -0.084502211
10.27                0.996258179   -0.0863829015
10.276               0.996093391   -0.0882632939
10.282               0.995925052   -0.0901433815
10.288               0.995753165   -0.0920231577
10.294               0.995577728   -0.0939026157
10.3                 0.995398743   -0.0957817489
10.306                0.99521621   -0.0976605505
10.312                0.99503013    -0.099539014
10.318               0.994840504    -0.101417133
10.324               0.994647331      -0.1032949
10.33                0.994450614    -0.105172309
10.336               0.994250351    -0.107049353
10.342               0.994046545    -0.108926025
10.348               0.993839195    -0.110802319
10.354               0.993628302    -0.112678229
10.36                0.993413868    -0.114553746
10.366               0.993195892    -0.116428866
10.372               0.992974375     -0.11830358
10.378               0.992749319    -0.120177883
10.384               0.992520723    -0.122051768
10.39                0.992288589    -0.123925228
10.396               0.992052918    -0.125798257
10.402               0.991813709    -0.127670847
10.408               0.991570965    -0.129542992
10.414               0.991324685    -0.131414686
10.42                0.991074871    -0.133285921
10.426               0.990821523    -0.135156692
10.432               0.990564642    -0.137026991
10.438                0.99030423    -0.138896812
10.444               0.990040286    -0.140766149
10.45                0.989772812    -0.142634994
10.456               0.989501809     -0.14450334
10.462               0.989227277    -0.146371182
10.468               0.988949218    -0.148238513
10.474               0.988667632    -0.150105326
10.48                0.988382521    -0.151971614
10.486               0.988093885     -0.15383737
10.492               0.987801725    -0.155702589
10.498               0.987506042    -0.157567263
10.504               0.987206838    -0.159431386
10.51                0.986904113    -0.161294951
10.516               0.986597868    -0.163157952
10.522               0.986288104    -0.165020381
10.528               0.985974823    -0.166882233
10.534               0.985658025      -0.1687435
10.54                0.985337711    -0.170604177