! TOUCHSTONE file generated by CST MICROWAVE STUDIO
! Date and time: Wed Sep 25 17:16:26 2024
! Project name: noDUT.cst
! Parameters = {A=1.40924; AB_sqInv=0.503371; B=0.025494; C0=2.097; Cj=0.183267; Cp=0.075; Ct=0.258061; ImZ=-61.6735; L=10; L1=0.3; L_back=16.1559; Lp=0.35; Lpad=0.75; M=1.199; R=5.41; R_cav=0.5; R_sogl=4.36377; ReZ=2.72324; Rt=2.72324; V=19.8; Vj=2.984; W=10; W1=-0.15; W2=-0.15; Wcoop=3.29; Wgap=1; Wline=1.42; Wpad=0.475; Wpadgap=0.35; Xpad1=1.6225; Xpad2=0.7975; Xpad3=1.6225; Xpad4=0.7975; Xvar_centre=1.21; angle_sogl=144.599; f=0.01; f0=11; fmax=11.25; fmin=10.75; h=0.8; phase=0; phi=0; sogl_proc=0.641844; th=0.035; theta=0}
! Header version: 2024
! Port assignment regex: !\s*Touchstone port\s*([0-9]+)\s*=\s*(CST MWS port|CST DES external port|CST DES block port)\s*(.+)\s* \(\"(.*)\"\)(\s*mode\s*([0-9]+))?.*
! Touchstone port assignment:
! Touchstone port 1 = CST MWS port Zmax ("") mode 1
! S-Parameters are not renormalized. Unphysical impedance of 50 will be written to the file.
# GHz S RI R 50
7                    0.771995292     0.635628247
7.006                  0.7733303     0.634006353
7.012                0.774661884     0.632381631
7.018                0.775990039     0.630754087
7.024                0.777314757     0.629123729
7.03                 0.778636035     0.627490565
7.036                0.779953864     0.625854602
7.042                0.781268241     0.624215847
7.048                0.782579158     0.622574309
7.054                0.783886611     0.620929995
7.06                 0.785190593     0.619282911
7.066                0.786491099     0.617633066
7.072                0.787788122     0.615980468
7.078                0.789081657     0.614325123
7.084                0.790371699      0.61266704
7.09                 0.791658242     0.611006226
7.096                0.792941279     0.609342688
7.102                0.794220806     0.607676435
7.108                0.795496816     0.606007473
7.114                0.796769305     0.604335811
7.12                 0.798038266     0.602661456
7.126                0.799303693     0.600984415
7.132                0.800565582     0.599304697
7.138                0.801823926     0.597622309
7.144                0.803078721     0.595937258
7.15                 0.804329959     0.594249553
7.156                0.805577637     0.592559202
7.162                0.806821749      0.59086621
7.168                0.808062288     0.589170588
7.174                 0.80929925     0.587472341
7.18                 0.810532629     0.585771479
7.186                 0.81176242     0.584068008
7.192                0.812988617     0.582361937
7.198                0.814211214     0.580653272
7.204                0.815430208     0.578942023
7.21                 0.816645591     0.577228197
7.216                0.817857359     0.575511801
7.222                0.819065506     0.573792843
7.228                0.820270028     0.572071332
7.234                0.821470918     0.570347275
7.24                 0.822668171     0.568620679
7.246                0.823861783     0.566891554
7.252                0.825051748     0.565159905
7.258                0.826238061     0.563425742
7.264                0.827420716     0.561689073
7.27                 0.828599708     0.559949904
7.276                0.829775033     0.558208244
7.282                0.830946685     0.556464102
7.288                0.832114658     0.554717484
7.294                0.833278948     0.552968399
7.3                   0.83443955     0.551216854
7.306                0.835596458     0.549462858
7.312                0.836749668     0.547706419
7.318                0.837899174     0.545947544
7.324                0.839044971     0.544186241
7.33                 0.840187054     0.542422519
7.336                0.841325419     0.540656385
7.342                 0.84246006     0.538887847
7.348                0.843590973     0.537116914
7.354                0.844718152     0.535343594
7.36                 0.845841592     0.533567893
7.366                0.846961288     0.531789821
7.372                0.848077237     0.530009386
7.378                0.849189432     0.528226595
7.384                0.850297868     0.526441456
7.39                 0.851402542     0.524653978
7.396                0.852503448     0.522864169
7.402                0.853600581     0.521072036
7.408                0.854693937     0.519277588
7.414                 0.85578351     0.517480833
7.42                 0.856869296     0.515681779
7.426                0.857951291     0.513880434
7.432                0.859029489     0.512076806
7.438                0.860103885     0.510270904
7.444                0.861174476     0.508462735
7.45                 0.862241256     0.506652307
7.456                0.863304221      0.50483963
7.462                0.864363366      0.50302471
7.468                0.865418686     0.501207556
7.474                0.866470177     0.499388177
7.48                 0.867517834      0.49756658
7.486                0.868561653     0.495742774
7.492                0.869601629     0.493916766
7.498                0.870637757     0.492088566
7.504                0.871670034     0.490258181
7.51                 0.872698453     0.488425619
7.516                0.873723012     0.486590889
7.522                0.874743706     0.484753999
7.528                0.875760529     0.482914957
7.534                0.876773478     0.481073772
7.54                 0.877782549     0.479230451
7.546                0.878787736     0.477385004
7.552                0.879789035     0.475537437
7.558                0.880786443      0.47368776
7.564                0.881779954     0.471835981
7.57                 0.882769565     0.469982109
7.576                0.883755271      0.46812615
7.582                0.884737067     0.466268115
7.588                 0.88571495      0.46440801
7.594                0.886688915     0.462545845
7.6                  0.887658958     0.460681628
7.606                0.888625075     0.458815367
7.612                0.889587261      0.45694707
7.618                0.890545512     0.455076746
7.624                0.891499825     0.453204404
7.63                 0.892450195     0.451330051
7.636                0.893396617     0.449453695
7.642                0.894339088     0.447575347
7.648                0.895277604     0.445695013
7.654                 0.89621216     0.443812702
7.66                 0.897142753     0.441928423
7.666                0.898069378     0.440042184
7.672                0.898992031     0.438153994
7.678                0.899910709      0.43626386
7.684                0.900825407     0.434371791
7.69                 0.901736122     0.432477797
7.696                0.902642849     0.430581884
7.702                0.903545584     0.428684063
7.708                0.904444324      0.42678434
7.714                0.905339064     0.424882725
7.72                 0.906229801     0.422979227
7.726                0.907116531     0.421073853
7.732                0.907999249     0.419166612
7.738                0.908877953     0.417257512
7.744                0.909752639     0.415346563
7.75                 0.910623301     0.413433773
7.756                0.911489938     0.411519149
7.762                0.912352544     0.409602702
7.768                0.913211116     0.407684439
7.774                0.914065651     0.405764368
7.78                 0.914916145     0.403842499
7.786                0.915762593      0.40191884
7.792                0.916604993     0.399993399
7.798                 0.91744334     0.398066186
7.804                0.918277632     0.396137208
7.81                 0.919107864     0.394206474
7.816                0.919934033     0.392273993
7.822                0.920756134     0.390339774
7.828                0.921574166     0.388403824
7.834                0.922388123     0.386466154
7.84                 0.923198003      0.38452677
7.846                0.924003802     0.382585683
7.852                0.924805517       0.3806429
7.858                0.925603143      0.37869843
7.864                0.926396678     0.376752282
7.87                 0.927186118     0.374804464
7.876                 0.92797146     0.372854986
7.882                  0.9287527     0.370903855
7.888                0.929529834     0.368951081
7.894                 0.93030286     0.366996672
7.9                  0.931071774     0.365040637
7.906                0.931836573     0.363082984
7.912                0.932597254     0.361123722
7.918                0.933353812     0.359162861
7.924                0.934106245     0.357200407
7.93                  0.93485455     0.355236371
7.936                0.935598723     0.353270762
7.942                0.936338761     0.351303586
7.948                 0.93707466     0.349334855
7.954                0.937806419     0.347364575
7.96                 0.938534033     0.345392757
7.966                0.939257499     0.343419408
7.972                0.939976814     0.341444537
7.978                0.940691975     0.339468154
7.984                0.941402979     0.337490267
7.99                 0.942109823     0.335510884
7.996                0.942812504     0.333530015
8.002                0.943511018     0.331547668
8.008                0.944205363     0.329563852
8.014                0.944895536     0.327578576
8.02                 0.945581533     0.325591849
8.026                0.946263351     0.323603679
8.032                0.946940989     0.321614075
8.038                0.947614442     0.319623047
8.044                0.948283707     0.317630602
8.05                 0.948948783      0.31563675
8.056                0.949609666     0.313641499
8.062                0.950266352     0.311644859
8.068                 0.95091884     0.309646838
8.074                0.951567126     0.307647445
8.08                 0.952211208     0.305646689
8.086                0.952851082     0.303644578
8.092                0.953486747     0.301641122
8.098                0.954118199      0.29963633
8.104                0.954745435      0.29763021
8.11                 0.955368452     0.295622771
8.116                0.955987249     0.293614022
8.122                0.956601822     0.291603972
8.128                0.957212169      0.28959263
8.134                0.957818287     0.287580004
8.14                 0.958420173     0.285566105
8.146                0.959017825     0.283550939
8.152                0.959611239     0.281534517
8.158                0.960200415     0.279516848
8.164                0.960785348     0.277497939
8.17                 0.961366037     0.275477801
8.176                0.961942478     0.273456442
8.182                 0.96251467     0.271433871
8.188                 0.96308261     0.269410097
8.194                0.963646295     0.267385129
8.2                  0.964205723     0.265358976
8.206                0.964760891     0.263331646
8.212                0.965311798     0.261303149
8.218                 0.96585844     0.259273494
8.224                0.966400815     0.257242689
8.23                 0.966938922     0.255210745
8.236                0.967472756     0.253177668
8.242                0.968002317      0.25114347
8.248                0.968527602     0.249108157
8.254                0.969048609     0.247071741
8.26                 0.969565335     0.245034228
8.266                0.970077778      0.24299563
8.272                0.970585936     0.240955953
8.278                0.971089806     0.238915209
8.284                0.971589387     0.236873404
8.29                 0.972084676      0.23483055
8.296                0.972575671     0.232786653
8.302                 0.97306237     0.230741725
8.308                0.973544771     0.228695772
8.314                0.974022871     0.226648806
8.32                 0.974496669     0.224600834
8.326                0.974966163     0.222551865
8.332                0.975431349     0.220501909
8.338                0.975892228     0.218450975
8.344                0.976348796     0.216399072
8.35                 0.976801051     0.214346208
8.356                0.977248991     0.212292393
8.362                0.977692615     0.210237636
8.368                0.978131921     0.208181946
8.374                0.978566906     0.206125332
8.38                 0.978997568     0.204067803
8.386                0.979423907     0.202009368
8.392                0.979845919     0.199950036
8.398                0.980263603     0.197889817
8.404                0.980676958     0.195828719
8.41                 0.981085981     0.193766751
8.416                0.981490671     0.191703923
8.422                0.981891025     0.189640243
8.428                0.982287042     0.187575721
8.434                0.982678721     0.185510366
8.44                 0.983066059     0.183444186
8.446                0.983449056     0.181377192
8.452                0.983827708     0.179309391
8.458                0.984202015     0.177240794
8.464                0.984571975     0.175171409
8.47                 0.984937586     0.173101245
8.476                0.985298846     0.171030312
8.482                0.985655755     0.168958619
8.488                 0.98600831     0.166886174
8.494                 0.98635651     0.164812987
8.5                  0.986700354     0.162739067
8.506                0.987039839     0.160664423
8.512                0.987374965     0.158589065
8.518                0.987705729        0.156513
8.524                0.988032131      0.15443624
8.53                 0.988354169     0.152358792
8.536                0.988671841     0.150280665
8.542                0.988985147      0.14820187
8.548                0.989294084     0.146122415
8.554                0.989598651     0.144042309
8.56                 0.989898848     0.141961561
8.566                0.990194672     0.139880181
8.572                0.990486123     0.137798178
8.578                0.990773198      0.13571556
8.584                0.991055898     0.133632338
8.59                  0.99133422     0.131548519
8.596                0.991608163     0.129464115
8.602                0.991877726     0.127379132
8.608                0.992142908     0.125293582
8.614                0.992403708     0.123207472
8.62                 0.992660124     0.121120812
8.626                0.992912156     0.119033612
8.632                0.993159801     0.116945879
8.638                 0.99340306     0.114857625
8.644                0.993641931     0.112768857
8.65                 0.993876413     0.110679586
8.656                0.994106505     0.108589819
8.662                0.994332206     0.106499567
8.668                0.994553514     0.104408838
8.674                0.994770429     0.102317642
8.68                 0.994982951     0.100225988
8.686                0.995191077    0.0981338854
8.692                0.995394807    0.0960413429
8.698                 0.99559414    0.0939483699
8.704                0.995789075    0.0918549757
8.71                 0.995979612    0.0897611694
8.716                0.996165748    0.0876669603
8.722                0.996347485    0.0855723575
8.728                 0.99652482    0.0834773703
8.734                0.996697753    0.0813820079
8.74                 0.996866283    0.0792862795
8.746                0.997030409    0.0771901944
8.752                0.997190131    0.0750937616
8.758                0.997345448    0.0729969905
8.764                0.997496359    0.0708998903
8.77                 0.997642863    0.0688024702
8.776                0.997784961    0.0667047394
8.782                 0.99792265    0.0646067071
8.788                 0.99805593    0.0625083826
8.794                0.998184802    0.0604097751
8.8                  0.998309263    0.0583108938
8.806                0.998429315    0.0562117479
8.812                0.998544955    0.0541123468
8.818                0.998656184    0.0520126995
8.824                0.998763001    0.0499128154
8.83                 0.998865405    0.0478127036
8.836                0.998963396    0.0457123735
8.842                0.999056974    0.0436118341
8.848                0.999146138    0.0415110949
8.854                0.999230888     0.039410165
8.86                 0.999311223    0.0373090536
8.866                0.999387142      0.03520777
8.872                0.999458646    0.0331063235
8.878                0.999525734    0.0310047232
8.884                0.999588406    0.0289029784
8.89                 0.999646661    0.0268010983
8.896                0.999700499    0.0246990923
8.902                0.999749921    0.0225969694
8.908                0.999794924    0.0204947391
8.914                 0.99983551    0.0183924105
8.92                 0.999871678    0.0162899928
8.926                0.999903429    0.0141874953
8.932                 0.99993076    0.0120849273
8.938                0.999953673   0.00998229801
8.944                0.999972168   0.00787961664
8.95                 0.999986244   0.00577689246
8.956                0.999995901   0.00367413471
8.962                 1.00000114   0.00157135263
8.968                 1.00000196 -0.000531444511
8.974                0.999998358  -0.00263424748
8.98                 0.999990338  -0.00473704703
8.986                  0.9999779  -0.00683983392
8.992                0.999961042  -0.00894259889
8.998                0.999939766   -0.0110453327
9.004                 0.99991407   -0.0131480261
9.01                 0.999883955   -0.0152506698
9.016                0.999849421   -0.0173532547
9.022                0.999810468   -0.0194557714
9.028                0.999767097   -0.0215582107
9.034                0.999719307   -0.0236605633
9.04                 0.999667098   -0.0257628201
9.046                0.999610471   -0.0278649717
9.052                0.999549426   -0.0299670089
9.058                0.999483963   -0.0320689226
9.064                0.999414082   -0.0341707033
9.07                 0.999339784   -0.0362723419
9.076                0.999261069   -0.0383738292
9.082                0.999177937   -0.0404751558
9.088                0.999090388   -0.0425763127
9.094                0.998998423   -0.0446772904
9.1                  0.998902042   -0.0467780798
9.106                0.998801245   -0.0488786716
9.112                0.998696034   -0.0509790566
9.118                0.998586407   -0.0530792255
9.124                0.998472366   -0.0551791692
9.13                 0.998353911   -0.0572788783
9.136                0.998231043   -0.0593783436
9.142                0.998103762   -0.0614775559
9.148                0.997972068    -0.063576506
9.154                0.997835962   -0.0656751846
9.16                 0.997695444   -0.0677735825
9.166                0.997550516   -0.0698716904
9.172                0.997401177   -0.0719694991
9.178                0.997247429   -0.0740669995
9.184                0.997089271   -0.0761641822
9.19                 0.996926705    -0.078261038
9.196                0.996759731   -0.0803575577
9.202                 0.99658835   -0.0824537321
9.208                0.996412562   -0.0845495519
9.214                0.996232368    -0.086645008
9.22                 0.996047769    -0.088740091
9.226                0.995858766   -0.0908347918
9.232                0.995665359   -0.0929291012
9.238                0.995467549   -0.0950230099
9.244                0.995265337   -0.0971165088
9.25                 0.995058724   -0.0992095885
9.256                0.994847711     -0.10130224
9.262                0.994632297    -0.103394454
9.268                0.994412486    -0.105486221
9.274                0.994188276    -0.107577532
9.28                 0.993959669    -0.109668378
9.286                0.993726667     -0.11175875
9.292                0.993489269    -0.113848638
9.298                0.993247478    -0.115938034
9.304                0.993001293    -0.118026927
9.31                 0.992750716    -0.120115309
9.316                0.992495748    -0.122203171
9.322                 0.99223639    -0.124290504
9.328                0.991972643    -0.126377297
9.334                0.991704509    -0.128463543
9.34                 0.991431987    -0.130549231
9.346                 0.99115508    -0.132634353
9.352                0.990873789      -0.1347189
9.358                0.990588114    -0.136802862
9.364                0.990298056     -0.13888623
9.37                 0.990003618    -0.140968995
9.376                  0.9897048    -0.143051148
9.382                0.989401604     -0.14513268
9.388                 0.98909403    -0.147213581
9.394                 0.98878208    -0.149293842
9.4                  0.988465755    -0.151373454
9.406                0.988145057    -0.153452408
9.412                0.987819987    -0.155530695
9.418                0.987490546    -0.157608306
9.424                0.987156736    -0.159685231
9.43                 0.986818557    -0.161761461
9.436                0.986476012    -0.163836988
9.442                0.986129102    -0.165911801
9.448                0.985777828    -0.167985893
9.454                0.985422192    -0.170059253
9.46                 0.985062195    -0.172131872
9.466                0.984697839    -0.174203742
9.472                0.984329124    -0.176274854
9.478                0.983956054    -0.178345197
9.484                0.983578628    -0.180414764
9.49                  0.98319685    -0.182483544
9.496                 0.98281072     -0.18455153
9.502                 0.98242024    -0.186618711
9.508                0.982025412    -0.188685078
9.514                0.981626237    -0.190750623
9.52                 0.981222717    -0.192815337
9.526                0.980814854    -0.194879209
9.532                0.980402649    -0.196942232
9.538                0.979986104    -0.199004395
9.544                0.979565221    -0.201065691
9.55                 0.979140001    -0.203126109
9.556                0.978710447    -0.205185642
9.562                 0.97827656    -0.207244278
9.568                0.977838342    -0.209302011
9.574                0.977395795     -0.21135883
9.58                 0.976948921    -0.213414726
9.586                0.976497721    -0.215469691
9.592                0.976042197    -0.217523715
9.598                0.975582352    -0.219576789
9.604                0.975118187    -0.221628904
9.61                 0.974649705    -0.223680051
9.616                0.974176906    -0.225730222
9.622                0.973699794    -0.227779406
9.628                 0.97321837    -0.229827596
9.634                0.972732636    -0.231874781
9.64                 0.972242595    -0.233920953
9.646                0.971748248    -0.235966103
9.652                0.971249597    -0.238010222
9.658                0.970746644      -0.2400533
9.664                0.970239392    -0.242095329
9.67                 0.969727843      -0.2441363
9.676                0.969211999    -0.246176204
9.682                0.968691862    -0.248215031
9.688                0.968167434    -0.250252773
9.694                0.967638718    -0.252289421
9.7                  0.967105715    -0.254324965
9.706                0.966568429    -0.256359397
9.712                 0.96602686    -0.258392708
9.718                0.965481012    -0.260424889
9.724                0.964930887     -0.26245593
9.73                 0.964376487    -0.264485823
9.736                0.963817814    -0.266514559
9.742                0.963254872    -0.268542129
9.748                0.962687661    -0.270568524
9.754                0.962116185    -0.272593734
9.76                 0.961540446    -0.274617752
9.766                0.960960447    -0.276640568
9.772                0.960376189    -0.278662172
9.778                0.959787676    -0.280682557
9.784                 0.95919491    -0.282701713
9.79                 0.958597893    -0.284719632
9.796                0.957996628    -0.286736303
9.802                0.957391118     -0.28875172
9.808                0.956781364    -0.290765871
9.814                 0.95616737     -0.29277875
9.82                 0.955549139    -0.294790346
9.826                0.954926672    -0.296800651
9.832                0.954299972    -0.298809655
9.838                0.953669043    -0.300817351
9.844                0.953033887    -0.302823729
9.85                 0.952394506    -0.304828781
9.856                0.951750903    -0.306832497
9.862                0.951103082    -0.308834868
9.868                0.950451044    -0.310835886
9.874                0.949794792    -0.312835542
9.88                  0.94913433    -0.314833827
9.886                0.948469659    -0.316830732
9.892                0.947800784    -0.318826248
9.898                0.947127706    -0.320820367
9.904                0.946450429     -0.32281308
9.91                 0.945768956    -0.324804377
9.916                0.945083289     -0.32679425
9.922                0.944393431    -0.328782691
9.928                0.943699385     -0.33076969
9.934                0.943001155    -0.332755239
9.94                 0.942298742    -0.334739328
9.946                0.941592151     -0.33672195
9.952                0.940881384    -0.338703094
9.958                0.940166444    -0.340682754
9.964                0.939447335    -0.342660919
9.97                 0.938724058     -0.34463758
9.976                0.937996618     -0.34661273
9.982                0.937265018     -0.34858636
9.988                 0.93652926     -0.35055846
9.994                0.935789347    -0.352529022
10                   0.935045284    -0.354498038
10.006               0.934297073    -0.356465498
10.012               0.933544717    -0.358431393
10.018               0.932788219    -0.360395716
10.024               0.932027583    -0.362358457
10.03                0.931262812    -0.364319608
10.036               0.930493909     -0.36627916
10.042               0.929720878    -0.368237104
10.048               0.928943722    -0.370193432
10.054               0.928162443    -0.372148134
10.06                0.927377046    -0.374101203
10.066               0.926587534     -0.37605263
10.072                0.92579391    -0.378002405
10.078               0.924996177    -0.379950521
10.084                0.92419434    -0.381896969
10.09                0.923388401    -0.383841739
10.096               0.922578364    -0.385784824
10.102               0.921764232    -0.387726215
10.108               0.920946008    -0.389665903
10.114               0.920123697    -0.391603879
10.12                0.919297302    -0.393540136
10.126               0.918466827    -0.395474664
10.132               0.917632274    -0.397407454
10.138               0.916793648    -0.399338499
10.144               0.915950951     -0.40126779
10.15                0.915104189    -0.403195318
10.156               0.914253363    -0.405121074
10.162               0.913398479     -0.40704505
10.168               0.912539539    -0.408967238
10.174               0.911676548    -0.410887629
10.18                0.910809508    -0.412806214
10.186               0.909938425    -0.414722985
10.192                 0.9090633    -0.416637933
10.198               0.908184139     -0.41855105
10.204               0.907300945    -0.420462328
10.21                0.906413722    -0.422371757
10.216               0.905522473     -0.42427933
10.222               0.904627202    -0.426185038
10.228               0.903727914    -0.428088872
10.234               0.902824612    -0.429990825
10.24                0.901917299    -0.431890887
10.246               0.901005981     -0.43378905
10.252                0.90009066    -0.435685305
10.258               0.899171342    -0.437579645
10.264               0.898248028    -0.439472061
10.27                0.897320725    -0.441362544
10.276               0.896389435    -0.443251087
10.282               0.895454162     -0.44513768
10.288               0.894514911    -0.447022315
10.294               0.893571686    -0.448904984
10.3                  0.89262449    -0.450785679
10.306               0.891673329     -0.45266439
10.312               0.890718205    -0.454541111
10.318               0.889759123    -0.456415832
10.324               0.888796087    -0.458288545
10.33                0.887829101    -0.460159242
10.336                0.88685817    -0.462027915
10.342               0.885883298    -0.463894554
10.348               0.884904488    -0.465759153
10.354               0.883921745    -0.467621702
10.36                0.882935073    -0.469482193
10.366               0.881944477    -0.471340618
10.372               0.880949961     -0.47319697
10.378               0.879951528    -0.475051238
10.384               0.878949184    -0.476903416
10.39                0.877942932    -0.478753495
10.396               0.876932778    -0.480601466
10.402               0.875918724    -0.482447322
10.408               0.874900777    -0.484291055
10.414               0.873878939    -0.486132655
10.42                0.872853216    -0.487972116
10.426               0.871823612    -0.489809428
10.432               0.870790131    -0.491644583
10.438               0.869752778    -0.493477574
10.444               0.868711557    -0.495308393
10.45                0.867666472     -0.49713703
10.456               0.866617529    -0.498963478
10.462               0.865564732    -0.500787729
10.468               0.864508085    -0.502609775
10.474               0.863447593    -0.504429607
10.48                0.862383261    -0.506247218
10.486               0.861315092    -0.508062599
10.492               0.860243092    -0.509875742
10.498               0.859167265    -0.511686639
10.504               0.858087617    -0.513495283
10.51                0.857004151    -0.515301664
10.516               0.855916872    -0.517105776
10.522               0.854825785    -0.518907609
10.528               0.853730894    -0.520707157
10.534               0.852632205     -0.52250441
10.54                0.851529722    -0.524299361